 &FCI NORB=  19,NELEC= 4,MS2=0,
  ORBSYM=1,1,1,1,1,1,1,1,1,1,1,1,1,1,1,1,1,1,1,
  ISYM=1,
 &END
 1.648404301176987    1    1    1    1
 -0.0889589705511744    1    1    2    1
 0.3417148136821663    1    1    2    2
 -0.06100981007692804    1    1    3    1
 0.003929572362319021    1    1    3    2
 0.2315044375063269    1    1    3    3
 0.1749251565806427    1    1    4    4
 0.1749251565806427    1    1    5    5
 -0.01553142482430773    1    1    6    1
 -0.03622319678009898    1    1    6    2
 0.04949340355881818    1    1    6    3
 0.1743462501666871    1    1    6    6
 0.09071164561906356    1    1    7    1
 -0.03184319857395006    1    1    7    2
 -0.09922337076055186    1    1    7    3
 -0.04635099073286267    1    1    7    6
 0.2939401354304486    1    1    7    7
 0.08065658331863987    1    1    8    4
 0.3466616376253224    1    1    8    8
 0.08065658331863987    1    1    9    5
 0.3466616376253224    1    1    9    9
 -0.03895663902731997    1    1   10    1
 0.04144718519221762    1    1   10    2
 0.0009174750582510492    1    1   10    3
 0.00846478921162503    1    1   10    6
 0.01048787514275381    1    1   10    7
 0.3169644159692651    1    1   10   10
 0.003175377607543091    1    1   11    4
 0.00972391788946201    1    1   11    8
 0.3007189120217807    1    1   11   11
 0.003175377607543091    1    1   12    5
 0.00972391788946201    1    1   12    9
 0.3007189120217807    1    1   12   12
 0.2994842828626068    1    1   13   13
 0.2994842828626069    1    1   14   14
 -0.02902005372980544    1    1   15    1
 -0.05579713231055081    1    1   15    2
 0.02390760867089743    1    1   15    3
 0.04428751923373481    1    1   15    6
 -0.03699544280316801    1    1   15    7
 -0.009041075479370374    1    1   15   10
 0.3351194650344118    1    1   15   15
 0.03874953953459983    1    1   16    1
 0.003297049685323801    1    1   16    2
 -0.007802166178030884    1    1   16    3
 -0.01563989905657658    1    1   16    6
 0.001101641515070019    1    1   16    7
 -0.03447472533516852    1    1   16   10
 0.03886380668242837    1    1   16   15
 0.2975097285069102    1    1   16   16
 -0.0009448900096254097    1    1   17    4
 -0.005484174676929465    1    1   17    8
 0.008178279822855294    1    1   17   11
 0.3152646037210881    1    1   17   17
 -0.0009448900096254093    1    1   18    5
 -0.005484174676929464    1    1   18    9
 0.008178279822855294    1    1   18   12
 0.3152646037210881    1    1   18   18
 -0.04948814393767004    1    1   19    1
 0.04220425842704813    1    1   19    2
 0.005433109454214776    1    1   19    3
 -0.01300138465938012    1    1   19    6
 -0.02330580881877783    1    1   19    7
 -0.01219561192804727    1    1   19   10
 -0.007283640840391857    1    1   19   15
 0.03295207310149115    1    1   19   16
 0.3450693267710374    1    1   19   19
 -0.08895897055117435    2    1    1    1
 0.008652170476318865    2    1    2    1
 0.006300680853247891    2    1    2    2
 0.004245201538455931    2    1    3    1
 -0.001747359809223164    2    1    3    2
 -0.002998887281043371    2    1    3    3
 -0.0003461351696588563    2    1    4    4
 -0.0003461351696588563    2    1    5    5
 0.000108889997162705    2    1    6    1
 -0.002025630623686308    2    1    6    2
 -0.0006527947621791144    2    1    6    3
 0.0005424144093180324    2    1    6    6
 -0.005421802357906041    2    1    7    1
 0.0006670429223102157    2    1    7    2
 0.003037674496313204    2    1    7    3
 0.002261606305831465    2    1    7    6
 -0.005058338096147684    2    1    7    7
 -0.0008873406029123678    2    1    8    4
 -0.003328995076080083    2    1    8    8
 -0.0008873406029123678    2    1    9    5
 -0.003328995076080083    2    1    9    9
 0.004659817177937123    2    1   10    1
 -0.001841585953104001    2    1   10    2
 0.001628354170877229    2    1   10    3
 0.0008277938063972997    2    1   10    6
 -0.001579703046194753    2    1   10    7
 -0.001169327669753841    2    1   10   10
 0.001476176153504278    2    1   11    4
 0.002605683526770799    2    1   11    8
 0.0005382907037520099    2    1   11   11
 0.001476176153504278    2    1   12    5
 0.002605683526770799    2    1   12    9
 0.0005382907037520099    2    1   12   12
 -0.0007721528567845756    2    1   13   13
 -0.0007721528567845791    2    1   14   14
 -0.0004065384870163109    2    1   15    1
 -0.001475590151269798    2    1   15    2
 -0.0007223348255395908    2    1   15    3
 -6.827721631776163e-06    2    1   15    6
 0.001317450142722443    2    1   15    7
 -0.00152338226565719    2    1   15   10
 -0.0009790684706635917    2    1   15   15
 -0.004387335537481397    2    1   16    1
 0.002807550645132178    2    1   16    2
 -0.0001374089850927276    2    1   16    3
 -0.001332739572695245    2    1   16    6
 -0.000483419787960186    2    1   16    7
 -0.001546371511685968    2    1   16   10
 -0.001029240081507847    2    1   16   15
 0.006255682963703877    2    1   16   16
 0.0001306288471131309    2    1   17    4
 0.0005817621589433014    2    1   17    8
 0.002029255906777757    2    1   17   11
 0.008334672326626475    2    1   17   17
 0.0001306288471131309    2    1   18    5
 0.0005817621589433014    2    1   18    9
 0.002029255906777757    2    1   18   12
 0.008334672326626477    2    1   18   18
 0.003353298669113968    2    1   19    1
 0.001904633801529107    2    1   19    2
 -0.001104275749991487    2    1   19    3
 -0.001359999609124403    2    1   19    6
 0.001084993381034911    2    1   19    7
 0.0004865051393125828    2    1   19   10
 -0.004811460702878144    2    1   19   15
 0.0008342755447677206    2    1   19   16
 0.007838685301423442    2    1   19   19
 0.3417148136821663    2    2    1    1
 0.006300680853247885    2    2    2    1
 0.4788657379958349    2    2    2    2
 -0.005742913789813827    2    2    3    1
 -0.04012872759139981    2    2    3    2
 0.1576975533469218    2    2    3    3
 0.1563460334488458    2    2    4    4
 0.1563460334488458    2    2    5    5
 -0.006207213994262401    2    2    6    1
 -0.07538141784184185    2    2    6    2
 0.03302914176405387    2    2    6    3
 0.1881611474167515    2    2    6    6
 0.00938223904779727    2    2    7    1
 -0.01460210018746171    2    2    7    2
 -0.03334663357158302    2    2    7    3
 0.008244565034511394    2    2    7    6
 0.1764170333575399    2    2    7    7
 0.04369496436518935    2    2    8    4
 0.2222302232970729    2    2    8    8
 0.04369496436518935    2    2    9    5
 0.2222302232970729    2    2    9    9
 0.004091339927125526    2    2   10    1
 -0.05297081309372336    2    2   10    2
 0.03241966690397279    2    2   10    3
 0.02631039211025804    2    2   10    6
 -0.009171165598764261    2    2   10    7
 0.2663977078219718    2    2   10   10
 0.03277626056587325    2    2   11    4
 0.04476854255969579    2    2   11    8
 0.278687896554744    2    2   11   11
 0.03277626056587325    2    2   12    5
 0.04476854255969579    2    2   12    9
 0.278687896554744    2    2   12   12
 0.2353236913956044    2    2   13   13
 0.2353236913956044    2    2   14   14
 -0.01332588716747667    2    2   15    1
 -0.01991108181746406    2    2   15    2
 -0.001354919976873604    2    2   15    3
 0.0275426960183291    2    2   15    6
 -0.007564247822205114    2    2   15    7
 -0.05443850652273291    2    2   15   10
 0.3063340660899238    2    2   15   15
 -0.001480438832810902    2    2   16    1
 0.1057836708190569    2    2   16    2
 -0.01943835218680991    2    2   16    3
 -0.06518170547600335    2    2   16    6
 -0.01001614539362964    2    2   16    7
 -0.06496213755207143    2    2   16   10
 -0.01471791413220925    2    2   16   15
 0.481750196860372    2    2   16   16
 0.006241208367459651    2    2   17    4
 0.01556046027770828    2    2   17    8
 0.06639334791091626    2    2   17   11
 0.5542170441594305    2    2   17   17
 0.006241208367459651    2    2   18    5
 0.01556046027770828    2    2   18    9
 0.06639334791091626    2    2   18   12
 0.5542170441594306    2    2   18   18
 -0.0002816985691841373    2    2   19    1
 0.01929541173150502    2    2   19    2
 -0.001679057436485452    2    2   19    3
 -0.01151833675975199    2    2   19    6
 -0.005217138258163971    2    2   19    7
 0.02227558027798749    2    2   19   10
 -0.09211376496059639    2    2   19   15
 0.001803863763082662    2    2   19   16
 0.5339759970639097    2    2   19   19
 -0.06100981007692797    3    1    1    1
 0.004245201538455927    3    1    2    1
 -0.005742913789813816    3    1    2    2
 0.004280929876524639    3    1    3    1
 0.0003989358871497689    3    1    3    2
 0.001306522846115135    3    1    3    3
 0.0001066256467956895    3    1    4    4
 0.0001066256467956895    3    1    5    5
 0.001720292724595868    3    1    6    1
 0.001365538621004535    3    1    6    2
 3.135930357307247e-05    3    1    6    3
 -0.0006883728240976387    3    1    6    6
 -0.006342581738746173    3    1    7    1
 0.0003619962816272089    3    1    7    2
 -0.0007992859612569151    3    1    7    3
 -0.0008380466311470764    3    1    7    6
 0.001277646595209896    3    1    7    7
 4.121353737148317e-06    3    1    8    4
 -0.0008424992803875298    3    1    8    8
 4.121353737148317e-06    3    1    9    5
 -0.0008424992803875298    3    1    9    9
 0.0009752355959566874    3    1   10    1
 -0.0001401511437954742    3    1   10    2
 -0.001350139808186651    3    1   10    3
 -0.0002672760347870426    3    1   10    6
 0.001221112530650962    3    1   10    7
 -0.0004774989705462114    3    1   10   10
 -0.001156243268623643    3    1   11    4
 -0.002290435839637319    3    1   11    8
 -0.0007857472100738455    3    1   11   11
 -0.001156243268623643    3    1   12    5
 -0.002290435839637319    3    1   12    9
 -0.0007857472100738455    3    1   12   12
 -0.0001229359792067688    3    1   13   13
 -0.0001229359792067635    3    1   14   14
 0.004685768543190171    3    1   15    1
 0.001519381020638452    3    1   15    2
 -0.0008438776160887962    3    1   15    3
 -0.001099721224695552    3    1   15    6
 0.001119624068043807    3    1   15    7
 0.002173878369455681    3    1   15   10
 -0.003071707849154529    3    1   15   15
 -0.001819682999886256    3    1   16    1
 -0.0004439690870830235    3    1   16    2
 0.0003001218438045666    3    1   16    3
 0.0005950583052971073    3    1   16    6
 0.0001126078071924168    3    1   16    7
 0.001716775272178875    3    1   16   10
 0.000130649517751709    3    1   16   15
 -0.004393052756823259    3    1   16   16
 3.734267621911038e-05    3    1   17    4
 8.555846049625033e-05    3    1   17    8
 -0.001159859651835815    3    1   17   11
 -0.005122759304020669    3    1   17   17
 3.734267621911037e-05    3    1   18    5
 8.555846049625031e-05    3    1   18    9
 -0.001159859651835815    3    1   18   12
 -0.005122759304020671    3    1   18   18
 0.004025061528839391    3    1   19    1
 -0.001855835958576963    3    1   19    2
 -9.230241749593936e-05    3    1   19    3
 0.0004989426950021542    3    1   19    6
 0.0005431144583662161    3    1   19    7
 0.0002291772239697937    3    1   19   10
 0.001421008813210482    3    1   19   15
 -0.0005466531612056289    3    1   19   16
 -0.006308793916089375    3    1   19   19
 0.003929572362318985    3    2    1    1
 -0.001747359809223163    3    2    2    1
 -0.04012872759139981    3    2    2    2
 0.0003989358871497705    3    2    3    1
 0.007388823602267389    3    2    3    2
 0.006074701376802755    3    2    3    3
 0.001902724435350888    3    2    4    4
 0.001902724435350888    3    2    5    5
 0.0008242166319980042    3    2    6    1
 0.01023753956012295    3    2    6    2
 -0.0004284323183961088    3    2    6    3
 -0.006530781177205232    3    2    6    6
 -0.00068098359338852    3    2    7    1
 -0.0001034691187422451    3    2    7    2
 -0.002355249095339841    3    2    7    3
 -0.004531563540250598    3    2    7    6
 0.005661723452265671    3    2    7    7
 0.00147019067615996    3    2    8    4
 0.003331988830232916    3    2    8    8
 0.00147019067615996    3    2    9    5
 0.003331988830232916    3    2    9    9
 -0.0007389350174543119    3    2   10    1
 0.01348479137508936    3    2   10    2
 -0.00448223411279725    3    2   10    3
 -0.001599665162224258    3    2   10    6
 0.001701039642022682    3    2   10    7
 -0.003874742452471334    3    2   10   10
 -0.005001833245924782    3    2   11    4
 -0.006642669954026585    3    2   11    8
 -0.005473219502512206    3    2   11   11
 -0.005001833245924782    3    2   12    5
 -0.006642669954026585    3    2   12    9
 -0.005473219502512206    3    2   12   12
 0.003684727097789391    3    2   13   13
 0.003684727097789373    3    2   14   14
 0.001763931604106104    3    2   15    1
 -0.001640485287636197    3    2   15    2
 0.001681491152948014    3    2   15    3
 -0.002136794400254707    3    2   15    6
 -0.0002495015099166968    3    2   15    7
 0.01138866688486377    3    2   15   10
 -0.01521581231502426    3    2   15   15
 0.0004644070739700106    3    2   16    1
 -0.01764057563163493    3    2   16    2
 0.003384163444115683    3    2   16    3
 0.009616793418700635    3    2   16    6
 0.001775616172645389    3    2   16    7
 0.008905985537302697    3    2   16   10
 0.006778287389007481    3    2   16   15
 -0.04403217445849641    3    2   16   16
 -0.001465231174461428    3    2   17    4
 -0.003082337216243822    3    2   17    8
 -0.01138268689419153    3    2   17   11
 -0.05420460759468208    3    2   17   17
 -0.001465231174461428    3    2   18    5
 -0.003082337216243822    3    2   18    9
 -0.01138268689419153    3    2   18   12
 -0.05420460759468208    3    2   18   18
 -0.0004992716743541822    3    2   19    1
 4.056210271189201e-05    3    2   19    2
 -6.373795954851671e-05    3    2   19    3
 -0.0003741298006847989    3    2   19    6
 -2.084103479133047e-05    3    2   19    7
 -0.004865549899570406    3    2   19   10
 0.01399671138880839    3    2   19   15
 0.003505629633928749    3    2   19   16
 -0.05182056476137212    3    2   19   19
 0.2315044375063269    3    3    1    1
 -0.002998887281043376    3    3    2    1
 0.1576975533469218    3    3    2    2
 0.001306522846115126    3    3    3    1
 0.006074701376802755    3    3    3    2
 0.2060914284212406    3    3    3    3
 0.1474980819309986    3    3    4    4
 0.1474980819309986    3    3    5    5
 0.001700756895629544    3    3    6    1
 -0.005165300307577387    3    3    6    2
 0.013854839888365    3    3    6    3
 0.12787337790841    3    3    6    6
 -0.002116817168451858    3    3    7    1
 -0.009658758529625784    3    3    7    2
 -0.03792480406845133    3    3    7    3
 -0.0310580531499188    3    3    7    6
 0.1968700617028323    3    3    7    7
 0.03417885236584668    3    3    8    4
 0.1878210628053155    3    3    8    8
 0.03417885236584668    3    3    9    5
 0.1878210628053155    3    3    9    9
 -0.002958367486240921    3    3   10    1
 0.01163903047646691    3    3   10    2
 -0.02485053989310463    3    3   10    3
 0.007115657804372393    3    3   10    6
 0.0195558111551454    3    3   10    7
 0.1976540968230024    3    3   10   10
 -0.018612870147334    3    3   11    4
 -0.02332143168472234    3    3   11    8
 0.1933242677051253    3    3   11   11
 -0.018612870147334    3    3   12    5
 -0.02332143168472234    3    3   12    9
 0.1933242677051253    3    3   12   12
 0.1923065719010345    3    3   13   13
 0.1923065719010345    3    3   14   14
 0.003654075229476935    3    3   15    1
 -0.008844951595766476    3    3   15    2
 -0.004719612559417312    3    3   15    3
 0.003564436979391478    3    3   15    6
 0.009736077292187286    3    3   15    7
 0.03101575759012393    3    3   15   10
 0.1780136549295167    3    3   15   15
 0.001368005117815754    3    3   16    1
 0.004295893771311021    3    3   16    2
 -0.00452544367810424    3    3   16    3
 -0.002266333304271608    3    3   16    6
 0.002652236102003021    3    3   16    7
 0.006510079739449686    3    3   16   10
 0.02028608911094652    3    3   16   15
 0.1549620661039738    3    3   16   16
 0.002509882019008116    3    3   17    4
 0.002418662140677799    3    3   17    8
 -0.008081590860977615    3    3   17   11
 0.1567922011033794    3    3   17   17
 0.002509882019008116    3    3   18    5
 0.002418662140677799    3    3   18    9
 -0.008081590860977615    3    3   18   12
 0.1567922011033794    3    3   18   18
 0.0005705156688284365    3    3   19    1
 0.004452022308839649    3    3   19    2
 2.729729685232963e-05    3    3   19    3
 -0.005463292519976343    3    3   19    6
 0.0008820439854157924    3    3   19    7
 0.004659328069679362    3    3   19   10
 0.005495121628852125    3    3   19   15
 0.009793633802739943    3    3   19   16
 0.1580926417085474    3    3   19   19
 0.0002794544742327416    4    1    4    1
 0.0004875095323275357    4    1    4    2
 0.0007501079760768717    4    1    4    3
 0.0004222122090853803    4    1    6    4
 -0.0002469962490124721    4    1    7    4
 0.001539499592585118    4    1    8    1
 0.001010541663950065    4    1    8    2
 0.001075806455806869    4    1    8    3
 0.0004679099652620789    4    1    8    6
 -0.001593539302792112    4    1    8    7
 0.0005639095631787784    4    1   10    4
 0.001381199095728139    4    1   10    8
 0.0001689966687999459    4    1   11    1
 0.0009011495384059257    4    1   11    2
 -0.0006913361315063143    4    1   11    3
 -0.0002859972331143905    4    1   11    6
 0.0006772008199523195    4    1   11    7
 0.0008292922278665522    4    1   11   10
 0.0007905144442529302    4    1   13    4
 0.001503800693685373    4    1   13    8
 0.0001474434546360363    4    1   13   11
 0.0007905144442529302    4    1   14    5
 0.001503800693685372    4    1   14    9
 0.0001474434546360362    4    1   14   12
 0.0001598052251277856    4    1   15    4
 0.0004427104366494554    4    1   15    8
 -0.0006030235726246201    4    1   15   11
 7.443089201461117e-06    4    1   16    4
 -0.0002462897416889519    4    1   16    8
 -0.0007038326852864793    4    1   16   11
 -0.0001837274381648824    4    1   17    1
 0.0003798531549252779    4    1   17    2
 -5.83772404834221e-05    4    1   17    3
 -0.0002393933397361357    4    1   17    6
 -6.531685449639413e-05    4    1   17    7
 -0.0005651365105765704    4    1   17   10
 -0.0001734712518965683    4    1   17   13
 -8.717433087385229e-05    4    1   17   15
 0.0003397701214594232    4    1   17   16
 -0.0001734712518965682    4    1   18   14
 -2.273377943911436e-05    4    1   19    4
 3.955437067146107e-06    4    1   19    8
 -0.0002465314111025873    4    1   19   11
 0.0003386223831244674    4    1   19   17
 0.0004875095323275357    4    2    4    1
 0.005646729694982952    4    2    4    2
 0.006499607812018903    4    2    4    3
 0.006481605791606141    4    2    6    4
 0.003408810988815565    4    2    7    4
 0.002219008209416898    4    2    8    1
 0.006672017544169194    4    2    8    2
 0.004297429232508668    4    2    8    3
 0.0008558435769702139    4    2    8    6
 -0.007392329608450707    4    2    8    7
 0.004312052197683068    4    2   10    4
 0.009072426785361428    4    2   10    8
 0.0004832476685745056    4    2   11    1
 0.01128940485589364    4    2   11    2
 -0.003527019931857317    4    2   11    3
 0.0005346939137431983    4    2   11    6
 0.00309205355835391    4    2   11    7
 0.005202769049943572    4    2   11   10
 0.007126415804252663    4    2   13    4
 0.008886419966069238    4    2   13    8
 0.004177266738344893    4    2   13   11
 0.007126415804252663    4    2   14    5
 0.008886419966069238    4    2   14    9
 0.004177266738344892    4    2   14   12
 -1.801753539869743e-05    4    2   15    4
 0.001235374787889889    4    2   15    8
 -0.004081726591121126    4    2   15   11
 -0.0001885419182597311    4    2   16    4
 -0.002000491422738276    4    2   16    8
 -0.008039409649461629    4    2   16   11
 -0.0001236988788077627    4    2   17    1
 0.007726063394030243    4    2   17    2
 -0.001668681964336272    4    2   17    3
 -0.00430582209303088    4    2   17    6
 -0.0009553860805219828    4    2   17    7
 -0.006514345991212629    4    2   17   10
 -0.001616936700682641    4    2   17   13
 0.0008402092283566123    4    2   17   15
 0.005161946818959844    4    2   17   16
 -0.001616936700682641    4    2   18   14
 -0.0008219698634213585    4    2   19    4
 -0.0007124679816643778    4    2   19    8
 -0.002158117103582454    4    2   19   11
 0.001490132482122149    4    2   19   17
 0.0007501079760768715    4    3    4    1
 0.006499607812018904    4    3    4    2
 0.02173731741514198    4    3    4    3
 0.008188227536670936    4    3    6    4
 0.00764220843930956    4    3    7    4
 0.003242125448583752    4    3    8    1
 0.006828380489773669    4    3    8    2
 0.01028217884795812    4    3    8    3
 0.005472405379776413    4    3    8    6
 -0.01842857986850423    4    3    8    7
 0.005800508869875667    4    3   10    4
 0.01164642358344186    4    3   10    8
 -2.325344285077557e-05    4    3   11    1
 0.005561090795252401    4    3   11    2
 -0.01491443364186094    4    3   11    3
 -0.001188047753517187    4    3   11    6
 0.009305529231735785    4    3   11    7
 0.008989896509446996    4    3   11   10
 0.01370506831036817    4    3   13    4
 0.01568202027005948    4    3   13    8
 -0.002529188903622885    4    3   13   11
 0.01370506831036817    4    3   14    5
 0.01568202027005949    4    3   14    9
 -0.002529188903622883    4    3   14   12
 0.002747975862374592    4    3   15    4
 0.004699265238709853    4    3   15    8
 -0.003918755195794438    4    3   15   11
 0.003516834723125434    4    3   16    4
 0.0005458020936986776    4    3   16    8
 -0.005876078126006132    4    3   16   11
 -0.000258586088226661    4    3   17    1
 0.0007301285324549141    4    3   17    2
 0.001726062970412329    4    3   17    3
 -0.001804066881633002    4    3   17    6
 -0.00158543428329422    4    3   17    7
 -0.005248775409657724    4    3   17   10
 -0.001353895804384672    4    3   17   13
 9.903479526741289e-07    4    3   17   15
 0.001598915673606744    4    3   17   16
 -0.001353895804384673    4    3   18   14
 9.394769366886637e-05    4    3   19    4
 -0.0001236059530374308    4    3   19    8
 -0.003090457231792346    4    3   19   11
 0.001635141708680571    4    3   19   17
 0.1749251565806427    4    4    1    1
 -0.000346135169658855    4    4    2    1
 0.1563460334488458    4    4    2    2
 0.000106625646795687    4    4    3    1
 0.001902724435350883    4    4    3    2
 0.1474980819309985    4    4    3    3
 0.1476527768012146    4    4    4    4
 0.1301591067682965    4    4    5    5
 0.0001017479181506183    4    4    6    1
 -0.002736331950714707    4    4    6    2
 0.01320671012248415    4    4    6    3
 0.1259484689257843    4    4    6    6
 -2.682274907172549e-05    4    4    7    1
 -0.003733271932128401    4    4    7    2
 -0.01563410717019281    4    4    7    3
 -0.003802481705166523    4    4    7    6
 0.1495499742414704    4    4    7    7
 0.01974466160916934    4    4    8    4
 0.1632254377258595    4    4    8    8
 0.01948511237205091    4    4    9    5
 0.1504805220293625    4    4    9    9
 -5.990824607349961e-07    4    4   10    1
 0.007250980480065689    4    4   10    2
 0.001813544068282708    4    4   10    3
 0.008068242605492553    4    4   10    6
 0.001610949702182414    4    4   10    7
 0.1611994070439938    4    4   10   10
 -0.0004625817857378608    4    4   11    4
 -0.001815807165229154    4    4   11    8
 0.168701933990747    4    4   11   11
 -0.0002677735476062938    4    4   12    5
 -0.001309737624090195    4    4   12    9
 0.1569572367162194    4    4   12   12
 0.0003465451041911251    4    4   13    1
 0.004356766269435084    4    4   13    2
 0.006765946782819891    4    4   13    3
 0.004413530950042819    4    4   13    6
 -0.00107356308712566    4    4   13    7
 0.007590862428403332    4    4   13   10
 0.1691281899054141    4    4   13   13
 0.1691281899054142    4    4   14   14
 0.0003576255103503571    4    4   15    1
 -0.005559430407477773    4    4   15    2
 0.002379276238412237    4    4   15    3
 0.003194134417401967    4    4   15    6
 -0.002607369735786164    4    4   15    7
 0.005542599646295512    4    4   15   10
 0.002085131085212659    4    4   15   13
 0.151825859932845    4    4   15   15
 8.150213076764666e-05    4    4   16    1
 0.0005454923575552392    4    4   16    2
 0.00218034406018829    4    4   16    3
 -0.003595752572643864    4    4   16    6
 0.00036662822181385    4    4   16    7
 -0.0007738909676172711    4    4   16   10
 0.001194958477314542    4    4   16   13
 0.00752782511510039    4    4   16   15
 0.1521550422908908    4    4   16   16
 -0.001474379496527796    4    4   17    4
 -0.0008772782075763715    4    4   17    8
 -0.00303748260738368    4    4   17   11
 0.1564021212108928    4    4   17   17
 -0.0006374182437610082    4    4   18    5
 -6.713977459115589e-07    4    4   18    9
 -0.0005378580862378223    4    4   18   12
 0.1534546992893289    4    4   18   18
 -8.825276424524297e-05    4    4   19    1
 0.001957639511688428    4    4   19    2
 0.0002537808222049271    4    4   19    3
 -0.003911503074603535    4    4   19    6
 -0.001564449071580638    4    4   19    7
 -0.0003781205946307123    4    4   19   10
 -0.000622822911524268    4    4   19   13
 -0.001581846455817421    4    4   19   15
 0.004443773421168504    4    4   19   16
 0.1527016743965758    4    4   19   19
 0.0002794544742327416    5    1    5    1
 0.0004875095323275357    5    1    5    2
 0.0007501079760768717    5    1    5    3
 0.0004222122090853803    5    1    6    5
 -0.0002469962490124721    5    1    7    5
 0.001539499592585118    5    1    9    1
 0.001010541663950065    5    1    9    2
 0.001075806455806869    5    1    9    3
 0.0004679099652620789    5    1    9    6
 -0.001593539302792112    5    1    9    7
 0.0005639095631787784    5    1   10    5
 0.001381199095728139    5    1   10    9
 0.0001689966687999459    5    1   12    1
 0.0009011495384059257    5    1   12    2
 -0.0006913361315063143    5    1   12    3
 -0.0002859972331143905    5    1   12    6
 0.0006772008199523195    5    1   12    7
 0.0008292922278665522    5    1   12   10
 -0.0007905144442529302    5    1   13    5
 -0.001503800693685373    5    1   13    9
 -0.0001474434546360363    5    1   13   12
 0.0007905144442529302    5    1   14    4
 0.001503800693685372    5    1   14    8
 0.0001474434546360362    5    1   14   11
 0.0001598052251277856    5    1   15    5
 0.0004427104366494554    5    1   15    9
 -0.0006030235726246201    5    1   15   12
 7.443089201461117e-06    5    1   16    5
 -0.0002462897416889519    5    1   16    9
 -0.0007038326852864793    5    1   16   12
 -0.0001734712518965682    5    1   17   14
 -0.0001837274381648824    5    1   18    1
 0.0003798531549252779    5    1   18    2
 -5.837724048342215e-05    5    1   18    3
 -0.0002393933397361357    5    1   18    6
 -6.531685449639421e-05    5    1   18    7
 -0.0005651365105765704    5    1   18   10
 0.0001734712518965683    5    1   18   13
 -8.717433087385229e-05    5    1   18   15
 0.0003397701214594232    5    1   18   16
 -2.273377943911436e-05    5    1   19    5
 3.955437067146107e-06    5    1   19    9
 -0.0002465314111025873    5    1   19   12
 0.0003386223831244674    5    1   19   18
 0.0004875095323275357    5    2    5    1
 0.005646729694982952    5    2    5    2
 0.006499607812018903    5    2    5    3
 0.006481605791606141    5    2    6    5
 0.003408810988815565    5    2    7    5
 0.002219008209416898    5    2    9    1
 0.006672017544169194    5    2    9    2
 0.004297429232508668    5    2    9    3
 0.0008558435769702139    5    2    9    6
 -0.007392329608450707    5    2    9    7
 0.004312052197683068    5    2   10    5
 0.009072426785361428    5    2   10    9
 0.0004832476685745056    5    2   12    1
 0.01128940485589364    5    2   12    2
 -0.003527019931857317    5    2   12    3
 0.0005346939137431983    5    2   12    6
 0.00309205355835391    5    2   12    7
 0.005202769049943572    5    2   12   10
 -0.007126415804252663    5    2   13    5
 -0.008886419966069238    5    2   13    9
 -0.004177266738344893    5    2   13   12
 0.007126415804252663    5    2   14    4
 0.008886419966069238    5    2   14    8
 0.004177266738344892    5    2   14   11
 -1.801753539869743e-05    5    2   15    5
 0.001235374787889889    5    2   15    9
 -0.004081726591121126    5    2   15   12
 -0.0001885419182597311    5    2   16    5
 -0.002000491422738276    5    2   16    9
 -0.008039409649461629    5    2   16   12
 -0.001616936700682641    5    2   17   14
 -0.0001236988788077627    5    2   18    1
 0.007726063394030243    5    2   18    2
 -0.001668681964336272    5    2   18    3
 -0.00430582209303088    5    2   18    6
 -0.0009553860805219828    5    2   18    7
 -0.006514345991212629    5    2   18   10
 0.001616936700682641    5    2   18   13
 0.0008402092283566123    5    2   18   15
 0.005161946818959844    5    2   18   16
 -0.0008219698634213585    5    2   19    5
 -0.0007124679816643778    5    2   19    9
 -0.002158117103582454    5    2   19   12
 0.001490132482122149    5    2   19   18
 0.0007501079760768715    5    3    5    1
 0.006499607812018904    5    3    5    2
 0.02173731741514198    5    3    5    3
 0.008188227536670936    5    3    6    5
 0.00764220843930956    5    3    7    5
 0.003242125448583752    5    3    9    1
 0.006828380489773669    5    3    9    2
 0.01028217884795812    5    3    9    3
 0.005472405379776413    5    3    9    6