 &FCI NORB=  28,NELEC=18,MS2=0,
  ORBSYM=1,1,1,1,1,1,1,1,1,1,1,1,1,1,1,1,1,1,1,1,1,1,1,1,1,1,1,1,
  ISYM=1,
 &END
 2.865941334702901    1    1    1    1
 2.865963041874518    1    1    2    2
 -0.2601259285969464    1    1    3    1
 0.834616426475123    1    1    3    3
 -0.2791217692968658    1    1    4    2
 0.8374517202186562    1    1    4    4
 0.793434025690693    1    1    5    5
 0.7934340256906933    1    1    6    6
 0.06232704292927961    1    1    7    1
 0.0231755514424769    1    1    7    3
 0.7990886933477156    1    1    7    7
 0.8318964319890269    1    1    8    8
 0.8318964319890257    1    1    9    9
 -0.07676348997573711    1    1   10    2
 0.08232721238720496    1    1   10    4
 0.8500032496737077    1    1   10   10
 0.2960188984833271    1    1   11    5
 0.72232403058178    1    1   11   11
 0.2960188984833271    1    1   12    6
 0.7223240305817803    1    1   12   12
 -0.09108951997263251    1    1   13    2
 0.1424367273934064    1    1   13    4
 -0.2819004443791056    1    1   13   10
 0.6711374728079739    1    1   13   13
 -0.3007486874765747    1    1   14    8
 0.6658305174310123    1    1   14   14
 -0.3007486874765747    1    1   15    9
 0.6658305174310126    1    1   15   15
 0.1467124334567088    1    1   16    1
 -0.1198063014821815    1    1   16    3
 0.268926791906245    1    1   16    7
 0.6738795836627152    1    1   16   16
 -0.2031802745127933    1    1   17    1
 0.2321912841877864    1    1   17    3
 0.1235016534655849    1    1   17    7
 0.03535391403948884    1    1   17   16
 0.7926792419306656    1    1   17   17
 0.2039728487014551    1    1   18    2
 -0.2124422160342652    1    1   18    4
 -0.1250312659669414    1    1   18   10
 -0.01830411865181948    1    1   18   13
 0.6715493960016623    1    1   18   18
 0.01431089794693689    1    1   19    1
 0.003068128211467355    1    1   19    3
 -0.002564118204591202    1    1   19    7
 -0.01454559208978575    1    1   19   16
 -0.03763106950281605    1    1   19   17
 0.7408464444215349    1    1   19   19
 0.0414194430775273    1    1   20    5
 -0.009996641532725578    1    1   20   11
 0.7296752447510604    1    1   20   20
 0.04141944307752735    1    1   21    6
 -0.009996641532725616    1    1   21   12
 0.7296752447510608    1    1   21   21
 0.7240950874119473    1    1   22   22
 0.7240950874119467    1    1   23   23
 0.7246004950927385    1    1   24   24
 0.7246004950927387    1    1   25   25
 -0.005232252522245932    1    1   26    8
 -0.01190910064778777    1    1   26   14
 0.7381235212918904    1    1   26   26
 -0.005232252522245871    1    1   27    9
 -0.01190910064778776    1    1   27   15
 0.7381235212918904    1    1   27   27
 0.04677907866387818    1    1   28    2
 -0.04309550562683586    1    1   28    4
 -0.01686981340594369    1    1   28   10
 -0.04791061866043378    1    1   28   13
 -0.03385758274336528    1    1   28   18
 0.744184629949124    1    1   28   28
 2.491132355029837    2    1    2    1
 -0.2614484846378612    2    1    3    2
 -0.2780823536011017    2    1    4    1
 0.4391143681519097    2    1    4    3
 0.05484201072346563    2    1    7    2
 -0.1921139328701379    2    1    7    4
 0.4527481793639464    2    1    8    6
 0.452748179363946    2    1    9    5
 -0.0845517073121349    2    1   10    1
 0.1479774169019914    2    1   10    3
 0.399084641162058    2    1   10    7
 0.3132482513128969    2    1   11    9
 0.3132482513128972    2    1   12    8
 -0.08401392993881032    2    1   13    1
 0.04880393011621167    2    1   13    3
 -0.2683911173863194    2    1   13    7
 -0.2455657635580512    2    1   14    6
 -0.3580742279023144    2    1   14   12
 -0.2455657635580514    2    1   15    5
 -0.3580742279023146    2    1   15   11
 0.140423509559428    2    1   16    2
 -0.1828077508962473    2    1   16    4
 0.1620206904535471    2    1   16   10
 -0.3827584316740589    2    1   16   13
 -0.2084666101725098    2    1   17    2
 0.1991463334306609    2    1   17    4
 0.2703807617168522    2    1   17   10
 -0.1110486739387279    2    1   17   13
 0.2056585488299323    2    1   18    1
 -0.1997205597381504    2    1   18    3
 0.004807931152461782    2    1   18    7
 0.1154283967474531    2    1   18   16
 -0.2890619492706446    2    1   18   17
 0.01500881802945985    2    1   19    2
 -0.02399400234402957    2    1   19    4
 -0.1317848830134232    2    1   19   10
 0.02946676764759996    2    1   19   13
 -0.08648438815316116    2    1   19   18
 -0.03241133309361995    2    1   20    9
 -0.04872474712284029    2    1   20   15
 -0.03241133309361992    2    1   21    8
 -0.04872474712284043    2    1   21   14
 0.3650715197766652    2    1   24   23
 0.3650715197766652    2    1   25   22
 -0.02663813534138511    2    1   26    6
 -0.05442269287564065    2    1   26   12
 0.3508866195563963    2    1   26   21
 -0.02663813534138507    2    1   27    5
 -0.05442269287564053    2    1   27   11
 0.3508866195563962    2    1   27   20
 0.04635317568136813    2    1   28    1
 -0.03515444150324061    2    1   28    3
 0.00633118006706907    2    1   28    7
 0.0375709478213536    2    1   28   16
 -0.054264176624348    2    1   28   17
 0.3352638321228979    2    1   28   19
 2.865963041874519    2    2    1    1
 2.865984760099756    2    2    2    2
 -0.2601322757329718    2    2    3    1
 0.8346095154820838    2    2    3    3
 -0.2791244222706796    2    2    4    2
 0.8374553944913899    2    2    4    4
 0.7934321856170509    2    2    5    5
 0.7934321856170512    2    2    6    6
 0.06231444135801519    2    2    7    1
 0.02316029262391502    2    2    7    3
 0.7990902682790931    2    2    7    7
 0.8318961522676228    2    2    8    8
 0.8318961522676218    2    2    9    9
 -0.07677987585442524    2    2   10    2
 0.08231297867869398    2    2   10    4
 0.8499952563813592    2    2   10   10
 0.2960203784432145    2    2   11    5
 0.7223234941057972    2    2   11   11
 0.2960203784432145    2    2   12    6
 0.7223234941057974    2    2   12   12
 -0.09107558963904308    2    2   13    2
 0.1424458962815763    2    2   13    4
 -0.2818990520631808    2    2   13   10
 0.6711436644369897    2    2   13   13
 -0.3007482762133862    2    2   14    8
 0.6658299703410184    2    2   14   14
 -0.3007482762133862    2    2   15    9
 0.6658299703410188    2    2   15   15
 0.1467011899793874    2    2   16    1
 -0.1198128441998579    2    2   16    3
 0.2689315290103898    2    2   16    7
 0.6738883410552963    2    2   16   16
 -0.203194893202747    2    2   17    1
 0.2321858030368583    2    2   17    3
 0.1234954396394356    2    2   17    7
 0.03534990682516839    2    2   17   16
 0.7926651381183909    2    2   17   17
 0.2039795790540367    2    2   18    2
 -0.2124428874037381    2    2   18    4
 -0.1250202689576422    2    2   18   10
 -0.01831262885201854    2    2   18   13
 0.6715444212976868    2    2   18   18
 0.01431388353781755    2    2   19    1
 0.00306617654413152    2    2   19    3
 -0.002576306101311058    2    2   19    7
 -0.01455117157864873    2    2   19   16
 -0.03763365960860066    2    2   19   17
 0.7408453478767539    2    2   19   19
 0.04140848149449082    2    2   20    5
 -0.01000240155680918    2    2   20   11
 0.7296724056195045    2    2   20   20
 0.04140848149449085    2    2   21    6
 -0.01000240155680922    2    2   21   12
 0.729672405619505    2    2   21   21
 0.724093652828538    2    2   22   22
 0.7240936528285377    2    2   23   23
 0.7245991281534726    2    2   24   24
 0.7245991281534727    2    2   25   25
 -0.005243500307382091    2    2   26    8
 -0.01190318075746064    2    2   26   14
 0.7381217079401254    2    2   26   26
 -0.00524350030738203    2    2   27    9
 -0.01190318075746063    2    2   27   15
 0.7381217079401253    2    2   27   27
 0.04678049862092742    2    2   28    2
 -0.04309557482580015    2    2   28    4
 -0.0168811612787372    2    2   28   10
 -0.04790454601200264    2    2   28   13
 -0.03385589340041184    2    2   28   18
 0.744181864042164    2    2   28   28
 -0.2601259285969463    3    1    1    1
 -0.2601322757329716    3    1    2    2
 0.04152690884274712    3    1    3    1
 -0.009117639222785325    3    1    3    3
 0.04359664252613098    3    1    4    2
 -0.01302973506923478    3    1    4    4
 -0.006955023792717565    3    1    5    5
 -0.00695502379271757    3    1    6    6
 -0.00650280741047682    3    1    7    1
 0.004737994338502985    3    1    7    3
 -0.007825672740393528    3    1    7    7
 -0.008588152272309517    3    1    8    8
 -0.008588152272309494    3    1    9    9
 0.01596463924605686    3    1   10    2
 0.000712321169118456    3    1   10    4
 -0.007813694497825083    3    1   10   10
 -0.008929234366122991    3    1   11    5
 -0.009953598759012213    3    1   11   11
 -0.008929234366122992    3    1   12    6
 -0.009953598759012212    3    1   12   12
 0.01084549309315342    3    1   13    2
 -0.006985614230408895    3    1   13    4
 0.00710024040166327    3    1   13   10
 -0.011367155846818    3    1   13   13
 0.008718435919979112    3    1   14    8
 -0.008942073553718044    3    1   14   14
 0.00871843591997911    3    1   15    9
 -0.008942073553718059    3    1   15   15
 -0.02001401064406909    3    1   16    1
 0.006303257439308065    3    1   16    3
 -0.009145596652174815    3    1   16    7
 -0.01206555355691935    3    1   16   16
 0.03508432403170212    3    1   17    1
 -0.00822479346173755    3    1   17    3
 -0.002379098880849401    3    1   17    7
 0.0001074611502161012    3    1   17   16
 -0.008628077192134848    3    1   17   17
 -0.03312868554488202    3    1   18    2
 0.008995198203269977    3    1   18    4
 0.002176274296098629    3    1   18   10
 0.002830936267057153    3    1   18   13
 -0.006438196716296299    3    1   18   18
 -0.002915095764861625    3    1   19    1
 0.001123091778344298    3    1   19    3
 0.004107018571771918    3    1   19    7
 0.002376915163630355    3    1   19   16
 0.002168368225698095    3    1   19   17
 -0.00133702625150619    3    1   19   19
 0.00217525452171823    3    1   20    5
 0.0009899549143178126    3    1   20   11
 -0.0006175181484619276    3    1   20   20
 0.00217525452171823    3    1   21    6
 0.0009899549143178117    3    1   21   12
 -0.0006175181484619279    3    1   21   21
 -0.0008394428133512816    3    1   22   22
 -0.0008394428133512209    3    1   23   23
 -0.0008615627641119268    3    1   24   24
 -0.0008615627641119879    3    1   25   25
 0.003329882737080329    3    1   26    8
 -0.002034585203015295    3    1   26   14
 -0.0009768969049866114    3    1   26   26
 0.003329882737080324    3    1   27    9
 -0.002034585203015296    3    1   27   15
 -0.0009768969049866105    3    1   27   27
 -0.007456854721412401    3    1   28    2
 0.00186731509283349    3    1   28    4
 0.003750828041106785    3    1   28   10
 -0.0012594471189923    3    1   28   13
 -0.001763312313308276    3    1   28   18
 -0.001272100004515953    3    1   28   28
 -0.261448484637861    3    2    2    1
 0.04151815803357184    3    2    3    2
 0.04360614911455358    3    2    4    1
 -0.01200086264443904    3    2    4    3
 -0.006556926192526123    3    2    7    2
 0.006792932623592277    3    2    7    4
 -0.00887690753198646    3    2    8    6
 -0.008876907531986448    3    2    9    5
 0.01590194337261634    3    2   10    1
 -0.001754075895991806    3    2   10    3
 -0.007502574609374884    3    2   10    7
 -0.009868681282653346    3    2   11    9
 -0.009868681282653356    3    2   12    8
 0.01090341896235331    3    2   13    1
 -0.004226530469986743    3    2   13    3
 0.009462655029486424    3    2   13    7
 0.008247545375364519    3    2   14    6
 0.01027909170572577    3    2   14   12
 0.008247545375364523    3    2   15    5
 0.01027909170572578    3    2   15   11
 -0.02005986652388016    3    2   16    2
 0.009121568342495839    3    2   16    4
 -0.006121083826051434    3    2   16   10
 0.01211898705144358    3    2   16   13
 0.03504671843906133    3    2   17    2
 -0.007673350211372405    3    2   17    4
 -0.007135465936083509    3    2   17   10
 0.002340392430677061    3    2   17   13
 -0.03311565702329119    3    2   18    1
 0.008404196490438868    3    2   18    3
 -0.002226275465294073    3    2   18    7
 -0.004730154195766055    3    2   18   16
 0.007430867522611067    3    2   18   17
 -0.002913541095195416    3    2   19    2
 -0.0003018286815063638    3    2   19    4
 0.004175513077692984    3    2   19   10
 -0.002839015628495999    3    2   19   13
 -0.000276809349255784    3    2   19   18
 0.001942138616807522    3    2   20    9
 -0.000636102131921612    3    2   20   15
 0.001942138616807523    3    2   21    8
 -0.0006361021319216093    3    2   21   14
 -0.001992810297604894    3    2   24   23
 -0.001992810297604926    3    2   25   22
 0.002834223132971263    3    2   26    6
 0.002342859425302195    3    2   26   12
 -0.002040641282960447    3    2   26   21
 0.00283422313297126    3    2   27    5
 0.002342859425302193    3    2   27   11
 -0.002040641282960447    3    2   27   20
 -0.007462321802640272    3    2   28    1
 0.00240787195140172    3    2   28    3
 0.002024106927139884    3    2   28    7
 0.0002159226119202474    3    2   28   16
 0.002812852084795121    3    2   28   17
 -0.002523423602203945    3    2   28   19
 0.8346164264751229    3    3    1    1
 0.8346095154820838    3    3    2    2
 -0.009117639222785344    3    3    3    1
 0.6803122987973321    3    3    3    3
 -0.0132228405256629    3    3    4    2
 0.6313446448687174    3    3    4    4
 0.6278838594012675    3    3    5    5
 0.6278838594012676    3    3    6    6
 0.01357930371008971    3    3    7    1
 0.07582401108974383    3    3    7    3
 0.6308097849190456    3    3    7    7
 0.6335577951470498    3    3    8    8
 0.6335577951470491    3    3    9    9
 0.008862349560903704    3    3   10    2
 0.0854221054490118    3    3   10    4
 0.6589834505665465    3    3   10   10
 0.1191361779739339    3    3   11    5
 0.5441135357293068    3    3   11   11
 0.1191361779739337    3    3   12    6
 0.544113535729307    3    3   12   12
 -0.0145760936780751    3    3   13    2
 0.0505196728920143    3    3   13    4
 -0.1406099722993381    3    3   13   10
 0.4812311715369675    3    3   13   13
 -0.1320841110231665    3    3   14    8
 0.5043886007439389    3    3   14   14
 -0.1320841110231665    3    3   15    9
 0.5043886007439389    3    3   15   15
 0.01529632537647153    3    3   16    1
 -0.04272937448122553    3    3   16    3
 0.115570100416104    3    3   16    7
 0.4844165832639569    3    3   16   16
 0.0002082242481020234    3    3   17    1
 0.08981331803235165    3    3   17    3
 0.04716343550920012    3    3   17    7
 0.01852500542129867    3    3   17   16
 0.6381935159858536    3    3   17   17
 0.005254511665187669    3    3   18    2
 -0.0791516758756332    3    3   18    4
 -0.06976936937001597    3    3   18   10
 0.005998494233291051    3    3   18   13
 0.5598743297862159    3    3   18   18
 -0.0008128265553153374    3    3   19    1
 0.02603633440482682    3    3   19    3
 0.0567097191022396    3    3   19    7
 0.01127412623050806    3    3   19   16
 -0.01052080249313384    3    3   19   17
 0.6589456825921843    3    3   19   19
 0.06471986748680185    3    3   20    5
 -0.004171854197931465    3    3   20   11
 0.6508957357684676    3    3   20   20
 0.06471986748680189    3    3   21    6
 -0.004171854197931513    3    3   21   12
 0.6508957357684679    3    3   21   21
 0.6363671151543697    3    3   22   22
 0.6363671151543692    3    3   23   23
 0.6360680719945291    3    3   24   24
 0.6360680719945293    3    3   25   25
 0.03843880707623579    3    3   26    8
 -0.02753581944246416    3    3   26   14
 0.652578495566333    3    3   26   26
 0.03843880707623577    3    3   27    9
 -0.02753581944246415    3    3   27   15
 0.652578495566333    3    3   27   27
 0.002088241760354775    3    3   28    2
 -0.00887929319662739    3    3   28    4
 0.03484444301154321    3    3   28   10
 -0.05209293732373304    3    3   28   13
 -0.04196416761132566    3    3   28   18
 0.6522458664380759    3    3   28   28
 -0.2780823536011016    4    1    2    1
 0.04360614911455358    4    1    3    2
 0.04740058421005654    4    1    4    1
 -0.0117422608771929    4    1    4    3
 -0.01232880351874211    4    1    7    2
 0.001193880596909478    4    1    7    4
 -0.008248208475325923    4    1    8    6
 -0.008248208475325911    4    1    9    5
 0.01111304726167599    4    1   10    1
 -0.007303341120570336    4    1   10    3
 -0.006932274593908135    4    1   10    7
 -0.00990287157876537    4    1   11    9
 -0.00990287157876538    4    1   12    8
 0.01768689999421887    4    1   13    1
 -0.001282616896686612    4    1   13    3
 0.008443806326228168    4    1   13    7
 0.008953953142978038    4    1   14    6
 0.01001297734477697    4    1   14   12
 0.008953953142978038    4    1   15    5
 0.01001297734477698    4    1   15   11
 -0.02675585329392318    4    1   16    2
 0.006559902085864436    4    1   16    4
 -0.00559665509254614    4    1   16   10
 0.00856365985111409    4    1   16   13
 0.03306678068545838    4    1   17    2
 -0.009944835436889499    4    1   17    4
 -0.01137388264583383    4    1   17   10
 0.004546756180634185    4    1   17   13
 -0.03405099447007427    4    1   18    1
 0.009982451985487332    4    1   18    3
 0.001472331994161405    4    1   18    7
 -0.002152608607386127    4    1   18   16
 0.01031133170755035    4    1   18   17
 -0.001962359875638543    4    1   19    2
 0.001120474572858544    4    1   19    4
 0.0002367675458435717    4    1   19   10
 -0.0004272474748110688    4    1   19   13
 -0.0009302672005313975    4    1   19   18
 -0.002153247611120049    4    1   20    9
 0.001280457683189399    4    1   20   15
 -0.002153247611120052    4    1   21    8
 0.001280457683189398    4    1   21   14
 -0.0008586222459802706    4    1   24   23
 -0.0008586222459803111    4    1   25   22
 -0.001001537048649893    4    1   26    6
 -0.0002020973455867266    4    1   26   12
 -0.0007774619985954553    4    1   26   21
 -0.001001537048649895    4    1   27    5
 -0.0002020973455867289    4    1   27   11
 -0.0007774619985954553    4    1   27   20
 -0.007604531909957041    4    1   28    1
 0.0017589262828524    4    1   28    3
 -0.001680324155133098    4    1   28    7
 -0.001501239371804065    4    1   28   16
 0.001432149758062614    4    1   28   17
 -0.0009018176590699767    4    1   28   19
 -0.2791217692968657    4    2    1    1
 -0.2791244222706793    4    2    2    2
 0.04359664252613099    4    2    3    1
 -0.01322284052566289    4    2    3    3
 0.04740814537185623    4    2    4    2
 -0.01297921256134978    4    2    4    4
 -0.008617220634242136    4    2    5    5
 -0.00861722063424214    4    2    6    6
 -0.01237752885715102    4    2    7    1
 -0.001315583208244571    4    2    7    3
 -0.007711022646905449    4    2    7    7
 -0.009748914100312953    4    2    8    8
 -0.009748914100312929    4    2    9    9
 0.01106755291163774    4    2   10    2
 -0.005504057760008661    4    2   10    4
 -0.01178618239312696    4    2   10   10
 -0.009273802837036592    4    2   11    5
 -0.01129361359597366    4    2   11   11
 -0.009273802837036594    4    2   12    6
 -0.01129361359597366    4    2   12   12
 0.01772875733898845    4    2   13    2
 -0.003817699730194486    4    2   13    4
 0.008181803503047829    4    2   13   10
 -0.009623692250683113    4    2   13   13
 0.009865454791568414    4    2   14    8
 -0.01014727769393825    4    2   14   14
 0.009865454791568407    4    2   15    9
 -0.01014727769393826    4    2   15   15
 -0.02679739411202725    4    2   16    1
 0.004275903497030107    4    2   16    3
 -0.007904580925980535    4    2   16    7
 -0.009387310949658945    4    2   16   16
 0.03303088481207084    4    2   17    1
 -0.01145913800414048    4    2   17    3
 -0.005070867942801977    4    2   17    7
 -0.001387183411006417    4    2   17   16
 -0.01554264698000272    4    2   17   17
 -0.03404203925269331    4    2   18    2
 0.009670199182000804    4    2   18    4
 0.007081377864508851    4    2   18   10
 -0.0004438877723461363    4    2   18   13
 -0.009272397663446917    4    2   18   18
 -0.00195983172089002    4    2   19    1
 0.0006251062593603194    4    2   19    3
 -0.0008652430082634174    4    2   19    7
 0.0001088499738437495    4    2   19   16
 0.001385477288088843    4    2   19   17
 -0.001879348040296766    4    2   19   19
 -0.00237003094599533    4    2   20    5
 -0.001363537054631652    4    2   20   11
 -0.001918690582406553    4    2   20   20
 -0.002370030945995332    4    2   21    6
 -0.001363537054631653    4    2   21   12
 -0.001918690582406554    4    2   21   21
 -0.001776758081761614    4    2   22   22
 -0.001776758081761543    4    2   23   23
 -0.001772580713723528    4    2   24   24
 -0.001772580713723599    4    2   25   25
 -0.001214759850950509    4    2   26    8
 0.0002782450309948376    4    2   26   14
 -0.00188962961172978    4    2   26   26
 -0.00121475985095051    4    2   27    9
 0.00027824503099484    4    2   27   15
 -0.00188962961172978    4    2   27   27
 -0.007608566421345141    4    2   28    2
 0.002303869621273549    4    2   28    4
 -0.0007547258349356351    4    2   28   10
 0.001300023595308014    4    2   28   13
 -0.001394091821400664    4    2   28   18
 -0.002576350739657264    4    2   28   28
 0.4391143681519097    4    3    2    1
 -0.01200086264443903    4    3    3    2
 -0.01174226087719289    4    3    4    1
 0.2434672098552177    4    3    4    3
 -0.0004747983262035384    4    3    7    2
 -0.1177930578973419    4    3    7    4
 0.2517482111128567    4    3    8    6
 0.2517482111128565    4    3    9    5
 -0.006480920344511658    4    3   10    1
 0.06618672004906613    4    3   10    3
 0.2214848496339483    4    3   10    7
 0.1216621260075217    4    3   11    9
 0.1216621260075219    4    3   12    8
 -0.0007572610823863178    4    3   13    1
 0.01682383108106335    4    3   13    3
 -0.09856581039540684    4    3   13    7
 -0.08266282164750041    4    3   14    6
 -0.1750814985568354    4    3   14   12
 -0.08266282164750056    4    3   15    5
 -0.1750814985568354    4    3   15   11
 0.003347031174526164    4    3   16    2
 -0.0639137873961622    4    3   16    4
 0.04474105834810511    4    3   16   10
 -0.2014485596093886    4    3   16   13
 -0.0104094651346193    4    3   17    2
 0.0740264081365026    4    3   17    4
 0.1056996242287193    4    3   17   10
 -0.04010782216654541    4    3   17   13
 0.008881866118231621    4    3   18    1
 -0.0636369668632059    4    3   18    3
 0.006076680803359519    4    3   18    7
 0.0648533437591008    4    3   18   16
 -0.1461638108986294    4    3   18   17
 0.000820856715555906    4    3   19    2
 -0.01669345311220457    4    3   19    4
 -0.08195830224323612    4    3   19   10
 0.004466516743280912    4    3   19   13
 -0.07322067506812832    4    3   19   18
 -0.03154685686009472    4    3   20    9
 -0.03531461709246801    4    3   20   15
 -0.03154685686009471    4    3   21    8
 -0.03531461709246812    4    3   21   14
 0.2578249536590029    4    3   24   23
 0.257824953659003    4    3   25   22
 -0.01351414356157389    4    3   26    6
 -0.03301436796346769    4    3   26   12
 0.2447048225231822    4    3   26   21
 -0.01351414356157387    4    3   27    5
 -0.03301436796346763    4    3   27   11
 0.2447048225231821    4    3   27   20
 0.001557634557621258    4    3   28    1
 -0.008669663921408612    4    3   28    3
 0.002196996009814974    4    3   28    7
 0.02053671246878877    4    3   28   16
 -0.02683071032710561    4    3   28   17
 0.2274450143485721    4    3   28   19
 0.837451720218656    4    4    1    1
 0.8374553944913898    4    4    2    2
 -0.01302973506923475    4    4    3    1
 0.6313446448687173    4    4    3    3
 -0.01297921256134975    4    4    4    2
 0.6380999603822809    4    4    4    4
 0.6089049195329521    4    4    5    5
 0.6089049195329523    4    4    6    6
 -5.253818618718439e-05    4    4    7    1
 0.0002431482104967067    4    4    7    3
 0.6226803415863733    4    4    7    7
 0.6262341014168    4    4    8    8
 0.6262341014167994    4    4    9    9
 -0.006898817244551427    4    4   10    2
 0.02261518088929935    4    4   10    4
 0.6258479567155545    4    4   10   10
 0.1292281775749687    4    4   11    5
 0.5288408051824139    4    4   11   11
 0.1292281775749686    4    4   12    6
 0.5288408051824141    4    4   12   12
 -0.0008609099949770336    4    4   13    2
 0.07260252812850071    4    4   13    4
 -0.1258614774801187    4    4   13   10
 0.5068198874533943    4    4   13   13
 -0.1268692269520351    4    4   14    8
 0.4993654642282045    4    4   14   14
 -0.1268692269520351    4    4   15    9
 0.4993654642282045    4    4   15   15
 0.003749730111823734    4    4   16    1
 -0.05700072652276217    4    4   16    3
 0.1199910108749275    4    4   16    7
 0.5162278343415976    4    4   16   16
 -0.01137448628255576    4    4   17    1
 0.0851938309658016    4    4   17    3
 0.04144827536485902    4    4   17    7
 0.005046874651293738    4    4   17   16
 0.5680318231273425    4    4   17   17
 0.009620112384913377    4    4   18    2
 -0.08221117082431563    4    4   18    4
 -0.03738314485432084    4    4   18   10
 -0.01937565918466083    4    4   18   13
 0.5314309594481245    4    4   18   18
 0.001497239941819097    4    4   19    1
 0.005777861489090619    4    4   19    3
 -0.008135610050741027    4    4   19    7
 -0.004606064869416975    4    4   19   16
 -0.01426381142386506    4    4   19   17
 0.6343329104104203    4    4   19   19
 0.009370011334985525    4    4   20    5
 -0.01714734465721526    4    4   20   11
 0.6269416104997045    4    4   20   20
 0.009370011334985544    4    4   21    6
 -0.0171473446572153    4    4   21   12
 0.6269416104997049    4    4   21   21
 0.6238057449685747    4    4   22   22
 0.6238057449685743    4    4   23   23
 0.6241737668448799    4    4   24   24
 0.6241737668448802    4    4   25   25
 -0.0143254660781573    4    4   26    8
 -0.01110650304967375    4    4   26   14
 0.631391220476748    4    4   26   26
 -0.01432546607815727    4    4   27    9
 -0.01110650304967372    4    4   27   15
 0.631391220476748    4    4   27   27
 0.002351537140857634    4    4   28    2
 -0.01269049787360168    4    4   28    4
 -0.02232510502345459    4    4   28   10
 -0.02938746483787553    4    4   28   13
 -0.0376124368884108    4    4   28   18
 0.6261612447215006    4    4   28   28
 0.01937652921894138    5    1    5    1
 0.02040097906715265    5    1    5    3
 -0.003663815564559382    5    1    7    5
 0.02099110610876771    5    1    9    2
 0.02236363958942073    5    1    9    4
 0.006035911875849436    5    1   10    9
 0.02272454836811175    5    1   11    1
 0.01122514849381516    5    1   11    3
 -0.00410811941331671    5    1   11    7
 0.004960959314387088    5    1   13    9
 -0.02154047489892469    5    1   15    2
 -0.01090137851762986    5    1   15    4
 -0.005433983301976216    5    1   15   10
 -0.00497853826430244    5    1   15   13
 -0.007026778725529419    5    1   16    5
 -0.009263075115240122    5    1   16   11
 0.007937108087651695    5    1   17    5
 0.01352870359954038    5    1   17   11
 -0.006731557292372866    5    1   18    9
 0.01236952012421371    5    1   18   15
 -0.009137366095976531    5    1   19    5
 -0.005580245316290866    5    1   19   11
 0.0007574378144577825    5    1   20    1
 0.003135754130242192    5    1   20    3
 0.01491766605018147    5    1   20    7
 0.005690465372398752    5    1   20   16
 0.00524823981386209    5    1   20   17
 -0.001630643923990321    5    1   20   19
 -0.01502564431674715    5    1   22    5
 -0.00855213199823344    5    1   22   11
 -0.0001698006632034127    5    1   22   20
 0.01502564431674715    5    1   23    6
 0.008552131998233434    5    1   23   12
 0.0001698006632034131    5    1   23   21
 0.01576443840287568    5    1   24    8
 -0.007246447271158933    5    1   24   14
 -0.01576443840287567    5    1   25    9
 0.007246447271158946    5    1   25   15
 -1.953301650397358e-05    5    1   26   24
 -0.001896555203395997    5    1   27    2
 -0.002408521394038938    5    1   27    4
 0.01539786921199595    5    1   27   10
 -0.008631139407792549    5    1   27   13
 0.00054624766922003    5    1   27   18
 1.953301650397208e-05    5    1   27   25
 -0.01051628128922715    5    1   28    9
 0.007620005507297265    5    1   28   15
 0.001724984815919231    5    1   28   27
 0.01921983353646553    5    2    5    2
 0.01983359080479615    5    2    5    4
 0.02082575820855376    5    2    9    1
 0.01943819051113963    5    2    9    3
 -0.005193594131979484    5    2    9    7
 0.005702062572416899    5    2   10    5
 0.02256703268838127    5    2   11    2
 0.01317718718973469    5    2   11    4
 0.00373203552785209    5    2   11   10
 0.004460941813331631    5    2   13    5
 0.005562031991761441    5    2   13   11
 -0.02138935043656442    5    2   15    1
 -0.01052949344543487    5    2   15    3
 0.001145678966156121    5    2   15    7
 -0.007693635223190947    5    2   16    9
 0.008270680431473972    5    2   16   15
 0.009903570671475325    5    2   17    9
 -0.01085996258730128    5    2   17   15
 -0.006669643797960628    5    2   18    5
 -0.01127365681737758    5    2   18   11
 -0.009355210730570171    5    2   19    9
 0.004507975799720517    5    2   19   15
 0.0007221551587753862    5    2   20    2
 -0.002358994520696834    5    2   20    4
 0.01409077169045181    5    2   20   10
 -0.00753679660567128    5    2   20   13
 -0.001461976221252889    5    2   20   18