 &FCI NORB=  27,NELEC=24,MS2=0,
  ORBSYM=1,1,1,1,1,1,1,1,1,1,1,1,1,1,1,1,1,1,1,1,1,1,1,1,1,1,1,
  ISYM=1,
 &END
 1.857018457702789    1    1    1    1
 0.03632199295552352    1    1    2    1
 1.880580555339912    1    1    2    2
 -1.950199554717423e-10    1    1    3    1
 1.830545654310486    1    1    3    3
 -0.1401324824140862    1    1    4    1
 -0.001849314699695071    1    1    4    2
 1.008460703052332e-11    1    1    4    3
 0.7088762069850311    1    1    4    4
 -0.005596811572297552    1    1    5    1
 -0.1518465463410684    1    1    5    2
 2.850101368186154e-10    1    1    5    3
 0.005127520185572785    1    1    5    4
 0.6511628157808068    1    1    5    5
 1.93912693685044e-11    1    1    6    1
 -2.935640443653308e-10    1    1    6    2
 -0.1465913023524204    1    1    6    3
 -1.810515468659324e-11    1    1    6    4
 0.6458580107099834    1    1    6    6
 0.617008954903599    1    1    7    7
 -0.06540595235209395    1    1    8    1
 -0.0006024234695690295    1    1    8    2
 -0.05559816337637109    1    1    8    4
 0.003058272340488454    1    1    8    5
 -1.07694797193804e-11    1    1    8    6
 0.607944057138047    1    1    8    8
 0.002088362302703149    1    1    9    1
 0.05799997403746452    1    1    9    2
 -1.115865169868936e-10    1    1    9    3
 -6.062276445723425e-05    1    1    9    4
 0.02147868619485921    1    1    9    5
 -1.280213170448234e-11    1    1    9    6
 -0.003980407805417412    1    1    9    8
 0.6274097241397656    1    1    9    9
 1.144688212717373e-10    1    1   10    2
 0.05625588867837692    1    1   10    3
 -1.081849069740342e-11    1    1   10    5
 0.02822389423613352    1    1   10    6
 1.388662425072062e-11    1    1   10    8
 0.6287973797152312    1    1   10   10
 0.006069749569239107    1    1   11    7
 0.6455336893342559    1    1   11   11
 -2.182245448668347e-11    1    1   12    7
 1.519973432661308e-11    1    1   12   11
 0.6363830176762749    1    1   12   12
 -1.118490850469012e-05    1    1   13    3
 0.001990639644898235    1    1   13    6
 1.751813706327947e-11    1    1   13    9
 0.005033412528706708    1    1   13   10
 0.6335501284275833    1    1   13   13
 -0.003125697700668725    1    1   14    1
 -0.07887069543648997    1    1   14    2
 1.51039189448817e-10    1    1   14    3
 0.003799179930198129    1    1   14    4
 0.0941935244243743    1    1   14    5
 -0.003493035151831237    1    1   14    8
 -9.354932350524522e-05    1    1   14    9
 0.6188017334833631    1    1   14   14
 -1.074015230824573e-11    1    1   15    1
 1.559925788913623e-10    1    1   15    2
 0.07595232118744778    1    1   15    3
 1.327221327254012e-11    1    1   15    4
 -1.091968277604513e-11    1    1   15    5
 -0.09030730049116449    1    1   15    6
 -1.216824692299561e-11    1    1   15    8
 0.004708025866158927    1    1   15   10
 0.00261930012496582    1    1   15   13
 0.6132631061693692    1    1   15   15
 -0.0003585534641316045    1    1   16    1
 -0.01695900876542647    1    1   16    2
 3.906331118681659e-11    1    1   16    3
 -0.001365893239291606    1    1   16    4
 0.06585147743658425    1    1   16    5
 -2.905224738470106e-11    1    1   16    6
 0.003640086557405443    1    1   16    8
 -0.01064661139119511    1    1   16    9
 -0.2224423519778065    1    1   16   14
 -7.507561641445911e-11    1    1   16   15
 0.5762823305007349    1    1   16   16
 3.977878562038863e-11    1    1   17    2
 0.01657396190840144    1    1   17    3
 -2.566116434804836e-11    1    1   17    5
 -0.06673653786627193    1    1   17    6
 1.151455313258665e-11    1    1   17    8
 1.463435085153812e-11    1    1   17    9
 0.004573624360211194    1    1   17   10
 -0.003102094001166344    1    1   17   13
 8.759448523047147e-11    1    1   17   14
 -0.2192439987987267    1    1   17   15
 0.573242634312938    1    1   17   17
 0.1817398969998595    1    1   18    7
 0.004437464043183667    1    1   18   11
 -1.583580764470118e-11    1    1   18   12
 0.5596439236757111    1    1   18   18
 0.1000125226741722    1    1   19    1
 0.001094458669468783    1    1   19    2
 -0.04700782252930955    1    1   19    4
 -0.002488626193526465    1    1   19    5
 -0.1783796588171487    1    1   19    8
 0.002396549223174492    1    1   19    9
 0.0005540410987104061    1    1   19   14
 -0.00402699784051852    1    1   19   16
 -1.245996320589272e-11    1    1   19   17
 0.494485716852565    1    1   19   19
 8.815590252065489e-10    1    1   20   11
 0.1903539623522082    1    1   20   12
 0.5007286083765417    1    1   20   20
 -0.003164887520120056    1    1   21    7
 -0.1958215142977364    1    1   21   11
 8.390310761831842e-10    1    1   21   12
 -0.004846202018056328    1    1   21   18
 -3.742281804010929e-11    1    1   21   20
 0.5068473029006939    1    1   21   21
 0.001191861465690542    1    1   22    1
 0.0324148132101801    1    1   22    2
 -6.413319507923704e-11    1    1   22    3
 5.307925751737866e-05    1    1   22    4
 0.01762162363763744    1    1   22    5
 -0.001991723394525536    1    1   22    8
 0.1846233093977991    1    1   22    9
 -1.257080633985848e-11    1    1   22   10
 1.112980322296957e-11    1    1   22   13
 0.01386495553078967    1    1   22   14
 0.01766376811091304    1    1   22   16
 0.002368799553221147    1    1   22   19
 0.5072986811036027    1    1   22   22
 -6.566822224325165e-11    1    1   23    2
 -0.03153108413068341    1    1   23    3
 -0.02039631232204995    1    1   23    6
 -0.1863265690040865    1    1   23   10
 -0.003232257776034628    1    1   23   13
 0.01190246668910371    1    1   23   15
 2.046634541492904e-11    1    1   23   16
 0.02456559044901516    1    1   23   17
 0.5094790828191677    1    1   23   23
 7.797950230550537e-05    1    1   24    3
 -0.001465516196933371    1    1   24    6
 -1.009423363390116e-11    1    1   24    9
 -0.002899913296918516    1    1   24   10
 -0.2110993659133923    1    1   24   13
 -0.0009481059878644477    1    1   24   15
 0.002919608703896476    1    1   24   17
 -1.344244113817692e-11    1    1   24   22
 0.003911994532609462    1    1   24   23
 0.5074412208589648    1    1   24   24
 -0.09522734258891591    1    1   25    1
 -0.001336674055914827    1    1   25    2
 0.1296894384904379    1    1   25    4
 0.00220789314285803    1    1   25    5
 -0.05272331441451809    1    1   25    8
 4.883699146707166e-05    1    1   25    9
 0.002898577594562052    1    1   25   14
 -0.001963434084220408    1    1   25   16
 -0.01288703509824314    1    1   25   19
 0.001243510177465545    1    1   25   22
 0.5636099178112486    1    1   25   25
 0.004165414902220998    1    1   26    1
 0.1129424664092414    1    1   26    2
 -6.03455969729433e-10    1    1   26    3
 -0.002329270509547175    1    1   26    4
 -0.1282933773175556    1    1   26    5
 4.428101456281629e-10    1    1   26    6
 -0.0009592164784025378    1    1   26    8
 0.02389097979668239    1    1   26    9
 -7.344324163969735e-11    1    1   26   10
 -0.07744737538570853    1    1   26   14
 -2.598453353096703e-10    1    1   26   15
 -0.02470727086894486    1    1   26   16
 -8.031657473404235e-11    1    1   26   17
 0.002451554926099661    1    1   26   19
 -0.01620234713959323    1    1   26   22
 -6.854930558304183e-11    1    1   26   23
 -0.003005443021518006    1    1   26   25
 0.5066928938928716    1    1   26   26
 -6.238504058335595e-10    1    1   27    2
 -0.1090367990662557    1    1   27    3
 4.663850087588125e-10    1    1   27    5
 0.124947168060152    1    1   27    6
 -8.857322668621367e-11    1    1   27    9
 -0.02174394978596138    1    1   27   10
 0.001081762684921231    1    1   27   13
 2.795709236971811e-10    1    1   27   14
 -0.07467977248876509    1    1   27   15
 7.776852669051083e-11    1    1   27   16
 -0.02504387541711362    1    1   27   17
 5.26584013249658e-11    1    1   27   22
 -0.01843755383805477    1    1   27   23
 -0.0001700621592461496    1    1   27   24
 -2.113745289911151e-11    1    1   27   26
 0.5027218681484307    1    1   27   27
 0.03632199295552363    2    1    1    1
 1.466447575287726    2    1    2    1
 0.9918277130459272    2    1    2    2
 -5.950589032712924e-09    2    1    3    2
 -1.028182360122213    2    1    3    3
 -0.001793978115893969    2    1    4    1
 -0.1457189199309621    2    1    4    2
 -7.292246491713236e-05    2    1    4    4
 -0.1503160607209443    2    1    5    1
 -0.1053811604363517    2    1    5    2
 4.128936674419619e-10    2    1    5    3
 0.2075342095647463    2    1    5    4
 0.106569968364298    2    1    5    5
 -2.906040502354553e-10    2    1    6    1
 4.267419080657581e-10    2    1    6    2
 0.1072263412034559    2    1    6    3
 4.018795830600102e-10    2    1    6    4
 -2.138059433395629e-10    2    1    6    5
 -0.1065590571289728    2    1    6    6
 -5.920144212073764e-05    2    1    7    7
 -0.0007105881350593293    2    1    8    1
 -0.05723928709212817    2    1    8    2
 7.284871266947674e-06    2    1    8    4
 0.1233922145372713    2    1    8    5
 2.390601131632816e-10    2    1    8    6
 -6.510931984300347e-05    2    1    8    8
 0.05547247357434556    2    1    9    1
 0.03467481673282172    2    1    9    2
 -1.343399389592841e-10    2    1    9    3
 -0.002066131176576779    2    1    9    4
 -0.1365915262267623    2    1    9    5
 2.687591923476321e-10    2    1    9    6
 -0.1609643874461961    2    1    9    8
 -0.02821501961895229    2    1    9    9
 1.094461985232096e-10    2    1   10    1
 -1.394493044413228e-10    2    1   10    2
 -0.03535061759481692    2    1   10    3
 2.686705437519622e-10    2    1   10    5
 0.1365737540036652    2    1   10    6
 -3.1812198377559e-10    2    1   10    8
 5.443607149124749e-11    2    1   10    9
 0.02828194308765914    2    1   10   10
 0.2455045832963249    2    1   11    7
 0.1849188490555901    2    1   11   11
 4.593132965489165e-10    2    1   12    7
 -3.95450325805785e-10    2    1   12   11
 -0.1848886754785096    2    1   12   12
 -0.003289549590065132    2    1   13    3
 -1.629126030409015e-10    2    1   13    5
 0.08425169375898021    2    1   13    6
 -4.013728887872724e-10    2    1   13    9
 0.203314927293462    2    1   13   10
 0.0002098919614777345    2    1   13   13
 -0.08750909534837217    2    1   14    1
 -0.05881954020032601    2    1   14    2
 2.277833127090481e-10    2    1   14    3
 0.1540175577110064    2    1   14    4
 0.0786664355686621    2    1   14    5
 -1.543883018090506e-10    2    1   14    6
 -0.1412612627006477    2    1   14    8
 0.09349150819693441    2    1   14    9
 -1.796982075981043e-10    2    1   14   10
 2.105540850161048e-10    2    1   14   13
 0.1110212101133166    2    1   14   14
 1.731183659639569e-10    2    1   15    1
 -2.359462387469071e-10    2    1   15    2
 -0.05991713984539877    2    1   15    3
 -3.051924121434193e-10    2    1   15    4
 1.545758694999989e-10    2    1   15    5
 0.07855617609655363    2    1   15    6
 2.798349236792693e-10    2    1   15    8
 1.801018949723633e-10    2    1   15    9
 0.09323568215678484    2    1   15   10
 0.1060204796134609    2    1   15   13
 2.127202496194558e-10    2    1   15   14
 -0.1112444713335821    2    1   15   15
 -0.006717387842925594    2    1   16    1
 -0.007301941101544964    2    1   16    2
 2.570712685216662e-11    2    1   16    3
 -0.0548033660784147    2    1   16    4
 -0.01781699252533739    2    1   16    5
 2.831027082691723e-11    2    1   16    6
 0.1491551568707757    2    1   16    8
 -0.1219607176119354    2    1   16    9
 1.896566504766818e-10    2    1   16   10
 -2.718963937280492e-10    2    1   16   13
 -0.06479934119828244    2    1   16   14
 -1.001457490239673e-10    2    1   16   15
 0.062546874283752    2    1   16   16
 1.570388925753688e-11    2    1   17    1
 -2.627904941526303e-11    2    1   17    2
 -0.007384930914176581    2    1   17    3
 1.288363446208004e-10    2    1   17    4
 -2.843536167738429e-11    2    1   17    5
 -0.01779111592333854    2    1   17    6
 -3.504791063209393e-10    2    1   17    8
 -1.896828444285392e-10    2    1   17    9
 -0.1219762856747988    2    1   17   10
 -0.1156247686306573    2    1   17   13
 -1.004475254616525e-10    2    1   17   14
 0.06493335630573184    2    1   17   15
 7.408279093310745e-11    2    1   17   16
 -0.06261672642899314    2    1   17   17
 -1.08875245620249e-05    2    1   18    7
 0.1779567392868855    2    1   18   11
 3.328777888864234e-10    2    1   18   12
 2.006577457654667e-05    2    1   18   18
 0.001172724904035312    2    1   19    1
 0.09435136481932169    2    1   19    2
 9.823430823306315e-06    2    1   19    4
 -0.09901916363269991    2    1   19    5
 -1.91852820903587e-10    2    1   19    6
 6.783443559121079e-06    2    1   19    8
 0.09824134096603897    2    1   19    9
 1.940125072908934e-10    2    1   19   10
 0.02033998569116287    2    1   19   14
 -4.025233199333809e-11    2    1   19   15
 -0.1618220138644072    2    1   19   16
 3.802294148641067e-10    2    1   19   17
 1.662791668721828e-05    2    1   19   19
 8.159118220101823e-10    2    1   20    7
 2.558975339233936e-10    2    1   20   11
 -0.1104655978558429    2    1   20   12
 1.238875174173204e-09    2    1   20   18
 -0.1235565460478058    2    1   20   20
 -0.1289676112995919    2    1   21    7
 -0.1104627929328002    2    1   21   11
 -2.558459188456974e-10    2    1   21   12
 -0.1958399708562075    2    1   21   18
 -8.365662827035196e-10    2    1   21   20
 0.1235265677284798    2    1   21   21
 0.03057415948345358    2    1   22    1
 0.01766529116534479    2    1   22    2
 -6.733823917449152e-11    2    1   22    3
 0.003577624922304969    2    1   22    4
 -0.05651227409011    2    1   22    5
 1.081657399323043e-10    2    1   22    6
 -0.0792134203901747    2    1   22    8
 -0.0341771202556528    2    1   22    9
 6.4233142377544e-11    2    1   22   10
 -2.652434335875304e-10    2    1   22   13
 0.0404145658643368    2    1   22   14
 7.588887305991816e-11    2    1   22   15
 -0.1397165139767515    2    1   22   16
 -2.099777224633665e-10    2    1   22   17
 0.09575441312420355    2    1   22   19
 -0.04361292214774626    2    1   22   22
 -6.190779889207789e-11    2    1   23    1
 7.017462014768526e-11    2    1   23    2
 0.01800624202575541    2    1   23    3
 -1.08183816703603e-10    2    1   23    5
 -0.05647229591316884    2    1   23    6
 1.606804927972418e-10    2    1   23    8
 -6.414922643940373e-11    2    1   23    9
 -0.03421806308590346    2    1   23   10
 -0.1308990026964693    2    1   23   13
 7.567754880180005e-11    2    1   23   14
 -0.04028149918176248    2    1   23   15
 -2.100619605984049e-10    2    1   23   16
 0.139725436721912    2    1   23   17
 -1.940491642385938e-10    2    1   23   19
 -7.965484159859823e-11    2    1   23   22
 0.04364977079431785    2    1   23   23
 0.002941969242523598    2    1   24    3
 1.151303472916907e-10    2    1   24    5
 -0.05942789212632062    2    1   24    6
 2.315599335321492e-10    2    1   24    9
 -0.1171452510855874    2    1   24   10
 -2.529022765032207e-05    2    1   24   13
 -9.529489070895655e-11    2    1   24   14
 -0.04809183233436879    2    1   24   15
 2.796513689887892e-10    2    1   24   16
 0.1190471491335281    2    1   24   17
 3.207405325980663e-10    2    1   24   22
 0.1581523667789813    2    1   24   23
 -4.088124263443467e-05    2    1   24   24
 -0.001272157706174307    2    1   25    1
 -0.1013249358451742    2    1   25    2
 4.843218740846651e-06    2    1   25    4
 0.08786519424786063    2    1   25    5
 1.701365704930695e-10    2    1   25    6
 -1.229752840548786e-05    2    1   25    8
 0.0005241330316489616    2    1   25    9
 0.1159522094304585    2    1   25   14
 -2.295836516705556e-10    2    1   25   15
 -0.07894297894357891    2    1   25   16
 1.85340538399423e-10    2    1   25   17
 9.428961902520003e-06    2    1   25   19
 0.04976643640210468    2    1   25   22
 -1.009650553650816e-10    2    1   25   23
 4.949050425147317e-05    2    1   25   25
 0.1127979511019313    2    1   26    1
 0.07839358340915654    2    1   26    2
 -2.069816846868551e-11    2    1   26    3
 -0.09496880619191844    2    1   26    4
 -0.06767368417487668    2    1   26    5
 -1.071095094643163e-10    2    1   26    6
 -0.0390964352071175    2    1   26    8
 0.04299512938310335    2    1   26    9
 6.978732224366189e-11    2    1   26   10
 2.566370874823119e-10    2    1   26   13
 -0.05635674119576548    2    1   26   14
 9.15023328621979e-11    2    1   26   15
 0.007064464278089155    2    1   26   16
 -1.411106878282353e-11    2    1   26   17
 0.09879476187331283    2    1   26   19
 0.04485491920498678    2    1   26   22
 -7.506902319047209e-11    2    1   26   23
 -3.849645436953546e-11    2    1   26   24
 -0.1210963801838791    2    1   26   25
 0.08049022059395503    2    1   26   26
 -6.23056215549848e-10    2    1   27    1
 3.617371491811633e-11    2    1   27    2
 0.07980518551391481    2    1   27    3
 5.249223731667928e-10    2    1   27    4
 1.071293050180733e-10    2    1   27    5
 -0.06767909754412775    2    1   27    6
 2.160644380909036e-10    2    1   27    8
 -6.975616228515549e-11    2    1   27    9
 0.04299889886904484    2    1   27   10
 0.04647702741834178    2    1   27   13
 9.166741329147559e-11    2    1   27   14
 0.05633541326014416    2    1   27   15
 -1.418340568700107e-11    2    1   27   16
 -0.007063611221760653    2    1   27   17
 -5.460343167763908e-10    2    1   27   19
 -7.520655236694722e-11    2    1   27   22
 -0.04482836238525213    2    1   27   23
 -0.006965726805011632    2    1   27   24
 6.692859530477158e-10    2    1   27   25
 -4.164357331193358e-10    2    1   27   26
 -0.08052325129243326    2    1   27   27
 1.880580555339912    2    2    1    1
 0.9918277130459262    2    2    2    1
 2.526729662575451    2    2    2    2
 -5.950532440030856e-09    2    2    3    1
 2.91912442543555e-10    2    2    3    2
 1.160499613084895    2    2    3    3
 -0.1412819532068305    2    2    4    1
 -0.09679382565417585    2    2    4    2
 5.918914454498339e-10    2    2    4    3
 0.708827224916265    2    2    4    4
 -0.1035372886189642    2    2    5    1
 -0.2204903858679746    2    2    5    2
 1.261418043272813e-10    2    2    5    3
 0.1403548444841676    2    2    5    4
 0.7206028148205935    2    2    5    5
 4.192761552521812e-10    2    2    6    1
 -4.507579561373142e-10    2    2    6    2
 -0.07670889084593309    2    2    6    3
 -5.84423386800936e-10    2    2    6    4
 2.948343861966779e-10    2    2    6    5
 0.5764206982306743    2    2    6    6
 0.6169723364609067    2    2    7    7
 -0.06586607613697537    2    2    8    1
 -0.03789880983810991    2    2    8    2
 2.317787453596647e-10    2    2    8    3
 -0.05559436472682661    2    2    8    4
 0.0834599795656176    2    2    8    5
 -3.476377041129711e-10    2    2    8    6
 0.6078971317702695    2    2    8    8
 0.038231946761867    2    2    9    1
 0.08059006381284635    2    2    9    2
 -5.801193168974192e-11    2    2    9    3
 -0.001409202874914306    2    2    9    4
 -0.06752019650163187    2    2    9    5
 -3.827762506174227e-10    2    2    9    6
 -0.1088639010526129    2    2    9    8
 0.6090226175981426    2    2    9    9
 -1.536772578369622e-10    2    2   10    1
 1.674003653759998e-10    2    2   10    2
 0.03321753437389991    2    2   10    3
 -3.806826593640482e-10    2    2   10    5
 0.1172159318827525    2    2   10    6
 4.489707203668634e-10    2    2   10    8
 -7.96760005309326e-11    2    2   10    9
 0.6472245351923692    2    2   10   10
 0.1660413621415444    2    2   11    7
 0.7660297283567621    2    2   11   11
 -7.02426457436232e-10    2    2   12    7
 4.952327469349907e-10    2    2   12   11
 0.5159106241928353    2    2   12   12
 -1.311037378300713e-11    2    2   13    2
 -0.002153230668570943    2    2   13    3
 2.369106555192118e-10    2    2   13    5
 0.05689121398554957    2    2   13    6
 5.664419594664754e-10    2    2   13    9
 0.1375134495454983    2    2   13   10
 0.633687135020738    2    2   13   13
 -0.06014123941244774    2    2   14    1
 -0.1171800362386161    2    2   14    2
 6.032455694029819e-11    2    2   14    3
 0.1041578529907273    2    2   14    4
 0.1454540476745136    2    2   14    5
 2.159941847859589e-10    2    2   14    6
 -0.09553833761116585    2    2   14    8
 0.06082573513192779    2    2   14    9
 2.640331393597351e-10    2    2   14   10
 -2.96161183107277e-10    2    2   14   13
 0.6911431157525266    2    2   14   14
 -2.412885748261386e-10    2    2   15    1
 2.456677468948018e-10    2    2   15    2
 0.0368988237711228    2    2   15    3
 4.292404887787722e-10    2    2   15    4
 -2.244620983114736e-10    2    2   15    5
 -0.03912041580644924    2    2   15    6
 -3.935613544052841e-10    2    2   15    8
 -2.645524595219185e-10    2    2   15    9
 0.06546243527661784    2    2   15   10
 0.07170090990344273    2    2   15   13
 -3.136112422363246e-10    2    2   15   14
 0.5407763501161889    2    2   15   15
 -0.004737848478965612    2    2   16    1
 -0.02172077786199685    2    2   16    2
 2.622225119646038e-11    2    2   16    3
 -0.03707734266076314    2    2   16    4
 0.05423949845111566    2    2   16    5
 -8.14944350156211e-11    2    2   16    6
 0.1008292886094732    2    2   16    8
 -0.09011461572465025    2    2   16    9
 -3.72172280933835e-10    2    2   16   10
 2.936576655517595e-10    2    2   16   13
 -0.2646645583116975    2    2   16   14
 1.177524268144513e-10    2    2   16   15
 0.6170349441732675    2    2   16   16
 -1.69049988252221e-11    2    2   17    1
 5.245578722253687e-11    2    2   17    2
 0.01176524630537368    2    2   17    3
 -1.391881715403546e-10    2    2   17    4
 2.695379670046252e-11    2    2   17    5
 -0.07832727016489843    2    2   17    6
 3.785444128055537e-10    2    2   17    8
 3.778536756784761e-10    2    2   17    9
 -0.07490830377049962    2    2   17   10
 -0.07844287674662249    2    2   17   13
 2.806897133485906e-10    2    2   17   14
 -0.1769337491449378    2    2   17   15
 -2.082873431934612e-10    2    2   17   16
 0.5324399752922733    2    2   17   17
 0.1817333441120044    2    2   18    7
 0.1203948853273804    2    2   18   11
 -5.090772731070356e-10    2    2   18   12
 0.5596574322194707    2    2   18   18
 0.1007687892409565    2    2   19    1
 0.06257155555184142    2    2   19    2
 -3.825835798531604e-10    2    2   19    3
 -0.04699998723356164    2    2   19    4
 -0.06700875449928173    2    2   19    5
 2.789982695356284e-10    2    2   19    6
 -0.1783713931543525    2    2   19    8
 0.0664101747949585    2    2   19    9
 -2.738011121509851e-10    2    2   19   10
 0.01380744914514148    2    2   19   14
 5.660891809919323e-11    2    2   19   15
 -0.1094689829799066    2    2   19   16
 -4.106392079623348e-10    2    2   19   17
 0.4944922549072774    2    2   19   19
 1.951987432736124e-11    2    2   20    7
 1.48909473279802e-09    2    2   20   11
 0.1183747789112348    2    2   20   12
 2.996814169631586e-11    2    2   20   18
 0.4202192262208106    2    2   20   20
 -0.08720105023895992    2    2   21    7
 -0.2678000855190439    2    2   21   11
 2.314402380380645e-10    2    2   21   12
 -0.1324558648359216    2    2   21   18
 -1.07564041197432e-09    2    2   21   20
 0.5873379650000981    2    2   21   21
 0.02111259790352174    2    2   22    1
 0.04392531884252376    2    2   22    2
 -3.628249407234121e-11    2    2   22    3
 0.002383318319665385    2    2   22    4
 -0.01919991822286651    2    2   22    5
 -1.614684707051866e-10    2    2   22    6
 -0.05360650310477635    2    2   22    8
 0.162351739108346    2    2   22    9
 -1.0731827090316e-10    2    2   22   10
 3.602860989713784e-10    2    2   22   13
 0.0401998224906715    2    2   22   14
 -1.153136077203857e-10    2    2   22   15
 -0.07337416281408576    2    2   22   16
 4.274619427580141e-10    2    2   22   17
 0.06476234055791669    2    2   22   19
 0.4788789051281604    2    2   22   22
 8.378585076520246e-11    2    2   23    1
 -9.330559446285663e-11    2    2   23    2
 -0.01979661400811089    2    2   23    3
 1.58052378487899e-10    2    2   23    5
 -0.05719407851014288    2    2   23    6
 -2.182852375557335e-10    2    2   23    8
 8.814049836812986e-11    2    2   23    9
 -0.2086220163705384    2    2   23   10
 -0.08852628739201364    2    2   23   13
 -1.1622315741927e-10    2    2   23   14
 -0.0143461038655094    2    2   23   15
 4.411629086899918e-10    2    2   23   16
 0.1156119761891401    2    2   23   17
 2.635910210693554e-10    2    2   23   19
 1.262099349968376e-10    2    2   23   22
 0.5379198978969587    2    2   23   23
 1.217484687134426e-11    2    2   24    2
 0.001993540103790858    2    2   24    3
 -1.67451363064346e-10    2    2   24    5
 -0.04019002754036111    2    2   24    6
 -3.268003458258481e-10    2    2   24    9
 -0.0792321805653574    2    2   24   10
 -0.21111574906683    2    2   24   13
 1.340071378829045e-10    2    2   24   14
 -0.0322835237524936    2    2   24   15
 -3.020167598566483e-10    2    2   24   16
 0.08049042967768966    2    2   24   17
 -4.35694746933217e-10    2    2   24   22
 0.1069640206392589    2    2   24   23
 0.5074140800992978    2    2   24   24
 -0.09604033640606326    2    2   25    1
 -0.067355058773149    2    2   25    2
 4.116640784375941e-10    2    2   25    3
 0.1296922385851226    2    2   25    4
 0.05946060603852191    2    2   25    5
 -2.474209829489612e-10    2    2   25    6
 -0.05273207135393227    2    2   25    8
 0.0003898212225196054    2    2   25    9
 0.07845369532661235    2    2   25   14
 3.228851112177833e-10    2    2   25   15
 -0.05340373288594118    2    2   25   16
 -2.001367841052004e-10    2    2   25   17
 -0.0128808425833109    2    2   25   19
 0.03367022192851577    2    2   25   22
 1.371827244287475e-10    2    2   25   23
 0.5636424169961455    2    2   25   25
 0.07766028463863216    2    2   26    1
 0.1640067269001972    2    2   26    2
 -2.983568655213875e-10    2    2   26    3
 -0.06421121004756027    2    2   26    4
 -0.1723874198297131    2    2   26    5
 1.028864915509201e-10    2    2   26    6
 -0.02643354056301242    2    2   26    8
 0.05190447731979381    2    2   26    9
 1.436132298185524e-10    2    2   26   10
 -1.792404532113417e-11    2    2   26   13
 -0.1141702935184241    2    2   26   14
 2.494480317594823e-11    2    2   26   15
 -0.02010214388799081    2    2   26   16
 -1.176500228384566e-10    2    2   26   17
 0.06682548654299672    2    2   26   19
 0.01302313820956574    2    2   26   22
 -2.963435137067296e-10    2    2   26   23
 -0.08191159476289125    2    2   26   25
 0.5591396651513099    2    2   26   26
 3.583988659426697e-11    2    2   27    1
 -9.242149105736745e-10    2    2   27    2
 -0.05702524701648704    2    2   27    3
 -3.697744669774483e-11    2    2   27    4
 8.062331361496468e-10    2    2   27    5
 0.08084540728067158    2    2   27    6
 -1.520219480294474e-11    2    2   27    8
 -3.056130079672317e-10    2    2   27    9
 0.006274980802461709    2    2   27   10
 0.03136705451029079    2    2   27   13
 5.643204115661147e-10    2    2   27   14
 -0.03797238507404378    2    2   27   15
 4.045527562517407e-11    2    2   27   16
 -0.02964442509776044    2    2   27   17
 3.835604485060157e-11    2    2   27   19
 -1.750694101638348e-10    2    2   27   22
 -0.04764768544645274    2    2   27   23
 -0.004710099785752653    2    2   27   24
 -4.69343314213333e-11    2    2   27   25
 -6.138591926441173e-10    2    2   27   26
 0.450251901606627    2    2   27   27
 -1.95019708953453e-10    3    1    1    1
 -5.950532410540206e-09    3    1    2    2
 1.416372298846782    3    1    3    1
 -1.028153088706537    3    1    3    2
 6.145630980663984e-09    3    1    3    3
 -0.1432490082051113    3    1    4    3
 2.821230585387468e-10    3    1    5    1
 4.127746912425661e-10    3    1    5    2
 0.1053661287250482    3    1    5    3
 -3.958417968478448e-10    3    1    5    4
 -2.10695460558581e-10    3    1    5    5
 -0.145105796450355    3    1    6    1
 0.1071931526355318    3    1    6    2
 -4.262794377371928e-10    3    1    6    3
 0.203941382983498    3    1    6    4
 -0.1046658153533565    3    1    6    5
 2.106706883813477e-10    3    1    6    6
 -0.05625873559492575    3    1    8    3
 -2.353463984021981e-10    3    1    8    5
 0.1213128312692754    3    1    8    6
 -1.064323352351597e-10    3    1    9    1
 -1.34562642067262e-10    3    1    9    2
 -0.03474650232373761    3    1    9    3
 2.647016777764219e-10    3    1    9    5
 0.1342316349563823    3    1    9    6
 3.133232998024384e-10    3    1    9    8
 5.357243360970531e-11    3    1    9    9
 0.05363982620718855    3    1   10    1
 -0.03541183873665167    3    1   10    2
 1.395530633033599e-10    3    1   10    3
 -0.002045954062830401    3    1   10    4
 0.1341903830500424    3    1   10    5
 -2.646728685378518e-10    3    1   10    6
 -0.1581845884463771    3    1   10    8
 0.02774613107373915    3    1   10    9
 -5.368866812455934e-11    3    1   10   10
 -4.52357905260185e-10    3    1   11    7
 -3.895389105846447e-10    3    1   11   11
 0.2412969628269072    3    1   12    7
 -0.1816592765452049    3    1   12   11
 3.894929971482106e-10    3    1   12   12
 0.000117019159600695    3    1   13    1
 0.003122520670951216    3    1   13    2
 -0.000144217908071768    3    1   13    4
 -0.08267181810214624    3    1   13    5
 -1.606958097277136e-10    3    1   13    6
 0.0001702670130641543    3    1   13    8
 -0.1995747246431737    3    1   13    9
 -3.957458617556765e-10    3    1   13   10
 1.681050885864574e-10    3    1   14    1