 &FCI NORB=  19,NELEC= 7,MS2=1,
  ORBSYM=1,1,1,1,1,1,1,1,1,1,1,1,1,1,1,1,1,1,1,
  ISYM=1,
 &END
 3.506102820863647    1    1    1    1
 -0.3007343269857938    1    1    2    1
 0.7609053478573899    1    1    2    2
 0.1432678248249291    1    1    3    1
 -0.07487547364180826    1    1    3    2
 0.7026174123418693    1    1    3    3
 0.7658447213928975    1    1    4    4
 0.6317125503134637    1    1    5    5
 0.1020182691752047    1    1    6    1
 -0.1576597850438594    1    1    6    2
 -0.08891253873644503    1    1    6    3
 0.3625717862088285    1    1    6    6
 -0.05785247594041954    1    1    7    1
 0.01920798900271323    1    1    7    2
 -0.1259678703238865    1    1    7    3
 -0.008531639092231305    1    1    7    6
 0.4325748039643916    1    1    7    7
 -0.3549075959524171    1    1    8    4
 0.6909051310858588    1    1    8    8
 0.3429061912628841    1    1    9    5
 0.8231087417307941    1    1    9    9
 0.1116884772589294    1    1   10    1
 -0.03653924109556247    1    1   10    2
 0.2899093696881717    1    1   10    3
 -0.120583728205953    1    1   10    6
 -0.0711343076463294    1    1   10    7
 0.7044042666441018    1    1   10   10
 0.2469813122038826    1    1   11    1
 -0.2617643965118582    1    1   11    2
 0.01817210644670612    1    1   11    3
 0.1819451569862221    1    1   11    6
 -0.004528769967588261    1    1   11    7
 -0.01849683647593403    1    1   11   10
 0.6081479632631134    1    1   11   11
 -0.02774996660252508    1    1   12    4
 0.03654754091336466    1    1   12    8
 0.5662204305115185    1    1   12   12
 -0.02499748049971277    1    1   13    5
 -0.04642300658855084    1    1   13    9
 0.5647332337951544    1    1   13   13
 0.6310164317174864    1    1   14   14
 -0.010651194523166    1    1   15    1
 0.008782573120892185    1    1   15    2
 -0.002576263076145839    1    1   15    3
 -0.003854760593217559    1    1   15    6
 -0.003915890098081035    1    1   15    7
 -0.006637202433516275    1    1   15   10
 -0.006345055750822929    1    1   15   11
 0.6311514558159431    1    1   15   15
 0.02386463509800116    1    1   16    1
 -0.007933873369206344    1    1   16    2
 0.01758498310290716    1    1   16    3
 0.03011159665524734    1    1   16    6
 -0.08606517079087864    1    1   16    7
 -0.07306760260637427    1    1   16   10
 0.03782997345555474    1    1   16   11
 -0.004452194953798985    1    1   16   15
 0.5820012640102294    1    1   16   16
 -0.02369663464600168    1    1   17    5
 -0.05090511963095819    1    1   17    9
 -0.103582911490282    1    1   17   13
 0.4978390848447688    1    1   17   17
 -0.02938278987526829    1    1   18    4
 0.042222333693072    1    1   18    8
 -0.1036934298353614    1    1   18   12
 0.4944536906995892    1    1   18   18
 -0.1151112215352327    1    1   19    1
 0.1050018694557132    1    1   19    2
 0.08950189437326762    1    1   19    3
 -0.100553388734669    1    1   19    6
 -0.05954719245688627    1    1   19    7
 0.193249482604759    1    1   19   10
 -0.2006140452257019    1    1   19   11
 0.005784593776908619    1    1   19   15
 0.03638766944096242    1    1   19   16
 0.693263031357095    1    1   19   19
 -0.3007343269857941    2    1    1    1
 0.04234334550592096    2    1    2    1
 -0.006448893876998131    2    1    2    2
 -0.01620940707700657    2    1    3    1
 0.007814259054864287    2    1    3    2
 -0.008992768787229365    2    1    3    3
 -0.007271340133254894    2    1    4    4
 -0.004271033186573573    2    1    5    5
 -0.01625543760604601    2    1    6    1
 0.001999038782994354    2    1    6    2
 0.001004708382704624    2    1    6    3
 -0.0007863013254106779    2    1    6    6
 0.006323444913244883    2    1    7    1
 -0.00261888505782075    2    1    7    2
 0.001972037738762995    2    1    7    3
 0.0003532656134499523    2    1    7    6
 -0.0008834920508491995    2    1    7    7
 0.008860436473198561    2    1    8    4
 -0.01083680554342556    2    1    8    8
 -0.007650570138595453    2    1    9    5
 -0.01412189025829314    2    1    9    9
 -0.01028211147592299    2    1   10    1
 0.00421277281818395    2    1   10    2
 -0.01098204634938791    2    1   10    3
 0.001380639952157799    2    1   10    6
 0.00519000715788359    2    1   10    7
 -0.01273797480906106    2    1   10   10
 -0.03585169611829836    2    1   11    1
 0.006847375979943444    2    1   11    2
 -0.002565263341802904    2    1   11    3
 -0.002489851493138925    2    1   11    6
 0.001134897659341011    2    1   11    7
 -0.002036212007522793    2    1   11   10
 -0.005384912469602226    2    1   11   11
 0.004199552821687672    2    1   12    4
 -0.002509618973253832    2    1   12    8
 0.0005073971827591663    2    1   12   12
 0.003758086247872649    2    1   13    5
 0.003464670220989822    2    1   13    9
 0.000366424304195529    2    1   13   13
 -0.00106164015017618    2    1   14   14
 0.001544850835170479    2    1   15    1
 -0.0004012059384125521    2    1   15    2
 0.0004209114929044389    2    1   15    3
 4.403354966764043e-05    2    1   15    6
 -0.0001143954703025647    2    1   15    7
 0.0003780981132468484    2    1   15   10
 0.0002287964000565578    2    1   15   11
 -0.001078613056480241    2    1   15   15
 -0.003875893430036849    2    1   16    1
 0.001914211885519362    2    1   16    2
 0.003142182084207843    2    1   16    3
 -0.00226406404638873    2    1   16    6
 -3.737157995438565e-05    2    1   16    7
 0.003724764718907789    2    1   16   10
 -0.002337426089037619    2    1   16   11
 0.0001390385626535082    2    1   16   15
 -0.0008589155587865767    2    1   16   16
 -0.0008796491094809727    2    1   17    5
 -0.0002804645259552965    2    1   17    9
 0.002327942160239805    2    1   17   13
 0.0005229484313610958    2    1   17   17
 -0.0009918380075781873    2    1   18    4
 0.0002223019041540665    2    1   18    8
 0.002302212378308543    2    1   18   12
 0.0006463828044498645    2    1   18   18
 0.02166296605497684    2    1   19    1
 -0.004450924386018196    2    1   19    2
 -0.003490139602439467    2    1   19    3
 0.003306320441033809    2    1   19    6
 0.003260239329446336    2    1   19    7
 -0.005249791326308513    2    1   19   10
 0.004327545150224516    2    1   19   11
 -8.513441283014491e-05    2    1   19   15
 -0.0002949702660267844    2    1   19   16
 -0.006947711649021898    2    1   19   19
 0.7609053478573899    2    2    1    1
 -0.006448893876998149    2    2    2    1
 0.6049198206824881    2    2    2    2
 0.01530184653432267    2    2    3    1
 0.05503223185971286    2    2    3    2
 0.5096059030262842    2    2    3    3
 0.5330648270397365    2    2    4    4
 0.4775422624699351    2    2    5    5
 -0.002555414402451872    2    2    6    1
 -0.08447815406618339    2    2    6    2
 -0.03018754672222127    2    2    6    3
 0.3452337971217593    2    2    6    6
 -0.006534927980605663    2    2    7    1
 -0.03025640794264752    2    2    7    2
 -0.1001753687594558    2    2    7    3
 -0.002926613127569745    2    2    7    6
 0.4173291087570555    2    2    7    7
 -0.1342545986702695    2    2    8    4
 0.4408709337575629    2    2    8    8
 0.1411650345570735    2    2    9    5
 0.4911261552655309    2    2    9    9
 0.01667157499340813    2    2   10    1
 -0.01728878234609678    2    2   10    2
 0.06211746870661639    2    2   10    3
 -0.07770313961425952    2    2   10    6
 0.04123660145824668    2    2   10    7
 0.466791282781317    2    2   10   10
 0.001700980439386057    2    2   11    1
 -0.08858994907808206    2    2   11    2
 0.0179217078613683    2    2   11    3
 0.1068878506958298    2    2   11    6
 -0.005101923050648395    2    2   11    7
 -0.03926108001505001    2    2   11   10
 0.4711084045364965    2    2   11   11
 0.04778706102835186    2    2   12    4
 0.006963505762770083    2    2   12    8
 0.5396658419804359    2    2   12   12
 0.04666269378774111    2    2   13    5
 0.001769040387162597    2    2   13    9
 0.5373202376023304    2    2   13   13
 0.513879377571397    2    2   14   14
 -0.0002928748039829739    2    2   15    1
 0.001170235662127177    2    2   15    2
 0.001769278802057605    2    2   15    3
 -0.002809344024115056    2    2   15    6
 -0.002648270836133551    2    2   15    7
 -7.590819814423362e-05    2    2   15   10
 -0.002983683834846468    2    2   15   11
 0.513875409515121    2    2   15   15
 -1.175847769137252e-05    2    2   16    1
 0.02310227053686653    2    2   16    2
 0.04130404550054215    2    2   16    3
 -0.01993912091944989    2    2   16    6
 -0.04184575761605086    2    2   16    7
 0.007570691188020125    2    2   16   10
 -0.01319778807141334    2    2   16   11
 0.0007909018155891319    2    2   16   15
 0.5181855600471772    2    2   16   16
 -0.01640763015542184    2    2   17    5
 -0.03461044735774513    2    2   17    9
 0.006493003200858979    2    2   17   13
 0.5011733284924165    2    2   17   17
 -0.02165608628642903    2    2   18    4
 0.03088142732512732    2    2   18    8
 0.005819099309391743    2    2   18   12
 0.5023718272389006    2    2   18   18
 0.008964241479924058    2    2   19    1
 -0.00362681382978299    2    2   19    2
 -0.003907746872401678    2    2   19    3
 -0.0154432541971623    2    2   19    6
 0.02431836013050982    2    2   19    7
 0.08032239795954418    2    2   19   10
 -0.0895798538066247    2    2   19   11
 0.002357326230063736    2    2   19   15
 -0.01867354819827295    2    2   19   16
 0.5604529921376132    2    2   19   19
 0.1432678248249292    3    1    1    1
 -0.01620940707700656    3    1    2    1
 0.01530184653432266    3    1    2    2
 0.02110203124722282    3    1    3    1
 0.01205940065010765    3    1    3    2
 -0.004870582683346664    3    1    3    3
 0.00390012800370116    3    1    4    4
 0.0024815791196797    3    1    5    5
 0.0004249149552585482    3    1    6    1
 -0.008265791903306003    3    1    6    2
 0.0005842408976561567    3    1    6    3
 0.006179313008048036    3    1    6    6
 -0.00985595661448554    3    1    7    1
 -0.003380129631567155    3    1    7    2
 -0.004559959261281304    3    1    7    3
 0.002705175884974605    3    1    7    6
 0.002562198570109982    3    1    7    7
 -0.004244009386443794    3    1    8    4
 0.004799546540273238    3    1    8    8
 0.003903978377595411    3    1    9    5
 0.006497591799728772    3    1    9    9
 0.02363544458589745    3    1   10    1
 0.0066062162141725    3    1   10    2
 -0.007031230540774843    3    1   10    3
 -0.002663751598190337    3    1   10    6
 0.003095138693573403    3    1   10    7
 -0.005407560552480234    3    1   10   10
 0.009108618405345294    3    1   11    1
 -0.009744047273593785    3    1   11    2
 -0.003275014055218442    3    1   11    3
 0.007017681563795699    3    1   11    6
 0.002362740733172862    3    1   11    7
 -0.00765543028269968    3    1   11   10
 0.01295035843300174    3    1   11   11
 0.009572278339737119    3    1   12    4
 -0.003779491190241948    3    1   12    8
 0.003581034138128936    3    1   12   12
 0.008577988163055293    3    1   13    5
 0.005415686110341456    3    1   13    9
 0.003594382208773435    3    1   13   13
 0.0001213970719539472    3    1   14   14
 -0.0007428585071115321    3    1   15    1
 0.0004678914995964667    3    1   15    2
 0.0004608623974538723    3    1   15    3
 -0.0004320590352584456    3    1   15    6
 9.943551372903802e-06    3    1   15    7
 0.0006272078213459957    3    1   15   10
 -0.0005008495782202232    3    1   15   11
 0.0001419368327930408    3    1   15   15
 -0.0008529515833765157    3    1   16    1
 0.002284704020480165    3    1   16    2
 0.008379008709367719    3    1   16    3
 -0.004239778178790021    3    1   16    6
 -2.909062737880381e-05    3    1   16    7
 0.007693631719133447    3    1   16   10
 -0.002652839973308596    3    1   16   11
 3.532867503955341e-05    3    1   16   15
 0.00125319179881651    3    1   16   16
 -0.005612733873623626    3    1   17    5
 -0.006037747706350517    3    1   17    9
 0.005687342939912028    3    1   17   13
 0.003689646104110503    3    1   17   17
 -0.006530039398666169    3    1   18    4
 0.004852925674245824    3    1   18    8
 0.005704949131561848    3    1   18   12
 0.003676086538989316    3    1   18   18
 0.009035787984053582    3    1   19    1
 0.006724744269485826    3    1   19    2
 0.003413898605830825    3    1   19    3
 -0.006323589887361911    3    1   19    6
 0.001634322287317721    3    1   19    7
 0.00778174922472757    3    1   19   10
 -0.01109587064598174    3    1   19   11
 0.000273143730076215    3    1   19   15
 -0.005132027688427881    3    1   19   16
 0.01619132688368843    3    1   19   19
 -0.0748754736418083    3    2    1    1
 0.007814259054864294    3    2    2    1
 0.05503223185971291    3    2    2    2
 0.01205940065010765    3    2    3    1
 0.1066606338966591    3    2    3    2
 -0.02813294338018446    3    2    3    3
 -0.03262411284553018    3    2    4    4
 -0.0240674988303699    3    2    5    5
 -0.008314763314017324    3    2    6    1
 -0.00757333347016226    3    2    6    2
 0.02831042085399483    3    2    6    3
 0.04828165158858927    3    2    6    6
 -0.005568462338605463    3    2    7    1
 -0.04148518418670763    3    2    7    2
 -0.04923253513962151    3    2    7    3
 0.02218105902503205    3    2    7    6
 0.0319278505710241    3    2    7    7
 0.01727841739722776    3    2    8    4
 -0.02788033591069944    3    2    8    8
 -0.01576546422685177    3    2    9    5
 -0.03293254096584159    3    2    9    9
 0.01566278199863716    3    2   10    1
 -0.002052969413929489    3    2   10    2
 -0.06824143493714992    3    2   10    3
 -0.01748751106188552    3    2   10    6
 0.06025147653673715    3    2   10    7
 -0.02832399751159794    3    2   10   10
 -0.009930990661262589    3    2   11    1
 0.01222197855717866    3    2   11    2
 0.01022472692495301    3    2   11    3
 0.008975353776663128    3    2   11    6
 -0.003696696344007629    3    2   11    7
 -0.05074870968022347    3    2   11   10
 0.0378793067104288    3    2   11   11
 0.07040235915836461    3    2   12    4
 -0.00771764975145122    3    2   12    8
 0.04404367041950387    3    2   12   12
 0.06785087753363644    3    2   13    5
 0.02197041846227401    3    2   13    9
 0.04647548285269378    3    2   13   13
 -0.03942717067011821    3    2   14   14
 0.0002262771918655268    3    2   15    1
 0.001447919543293614    3    2   15    2
 0.0006961501358647129    3    2   15    3
 -0.002183914533118309    3    2   15    6
 0.002516200158211304    3    2   15    7
 0.004714404603641789    3    2   15   10
 -0.002312398366528982    3    2   15   11
 -0.03919323113919749    3    2   15   15
 -0.0009786680024554829    3    2   16    1
 0.02333625574522022    3    2   16    2
 0.02989178085984942    3    2   16    3
 -0.04345469006494762    3    2   16    6
 0.02992009737637415    3    2   16    7
 0.06189330256405143    3    2   16   10
 -0.03390958059096279    3    2   16   11
 0.002672800683466129    3    2   16   15
 0.02373355351390541    3    2   16   16
 -0.01381732815950572    3    2   17    5
 -0.01750643806707782    3    2   17    9
 0.0925635860463374    3    2   17   13
 0.06452745957430708    3    2   17   17
 -0.01703742137096104    3    2   18    4
 0.01607225797359634    3    2   18    8
 0.09314775521962611    3    2   18   12
 0.06571154410660919    3    2   18   18
 0.01684200469863106    3    2   19    1
 -0.02187924371928798    3    2   19    2
 -0.01452333010915744    3    2   19    3
 0.005425136930976881    3    2   19    6
 0.04639605333583702    3    2   19    7
 0.01684395212058485    3    2   19   10
 -0.01170940232326049    3    2   19   11
 -0.001238942408314412    3    2   19   15
 -0.07221700201637686    3    2   19   16
 0.08866278590316418    3    2   19   19
 0.7026174123418697    3    3    1    1
 -0.008992768787229379    3    3    2    1
 0.5096059030262844    3    3    2    2
 -0.004870582683346655    3    3    3    1
 -0.02813294338018441    3    3    3    2
 0.5400512240717511    3    3    3    3
 0.4933369341945211    3    3    4    4
 0.4465929754685319    3    3    5    5
 0.006374846368481844    3    3    6    1
 -0.04408073628142944    3    3    6    2
 -0.04729211239856426    3    3    6    3
 0.3092757234555096    3    3    6    6
 0.001832263281063977    3    3    7    1
 -0.02333420951952468    3    3    7    2
 -0.05518058310067806    3    3    7    3
 -0.02593410228432053    3    3    7    6
 0.4002239391482851    3    3    7    7
 -0.1168527713770253    3    3    8    4
 0.418237571117811    3    3    8    8
 0.1219989677018449    3    3    9    5
 0.4627452304116266    3    3    9    9
 -0.008775051549948988    3    3   10    1
 -0.04639330415848389    3    3   10    2
 0.1081812041671036    3    3   10    3
 -0.06113751853635011    3    3   10    6
 -0.0008244236864740034    3    3   10    7
 0.5016365668579139    3    3   10   10
 0.009538385399038609    3    3   11    1
 -0.0617309135334163    3    3   11    2
 0.019735545836628    3    3   11    3
 0.08128583939348925    3    3   11    6
 -0.01963716691317241    3    3   11    7
 -0.006231264776244524    3    3   11   10
 0.4047286059283109    3    3   11   11
 -0.02533916856266562    3    3   12    4
 0.01922259596777161    3    3   12    8
 0.4895490442648181    3    3   12   12
 -0.02178298512123371    3    3   13    5
 -0.02397359768155191    3    3   13    9
 0.4886671485404435    3    3   13   13
 0.478218877569987    3    3   14   14
 -7.252763530122514e-05    3    3   15    1
 0.001397835379470164    3    3   15    2
 -0.001992007567841864    3    3   15    3
 -0.001302106100646825    3    3   15    6
 -0.002180828497679026    3    3   15    7
 -0.003123356607535909    3    3   15   10
 -0.001547446377092484    3    3   15   11
 0.4782539378606706    3    3   15   15
 0.004026471511429684    3    3   16    1
 0.01402243945089451    3    3   16    2
 -0.02604863903712923    3    3   16    3
 0.006845195630235407    3    3   16    6
 -0.04863649319895821    3    3   16    7
 -0.03943353036665472    3    3   16   10
 -0.0005115046750348712    3    3   16   11
 0.0004646907426682045    3    3   16   15
 0.4985777560441192    3    3   16   16
 0.02372175662764401    3    3   17    5
 -0.006939510877515084    3    3   17    9
 -0.0421096287230691    3    3   17   13
 0.4593161448704378    3    3   17   17
 0.02290738547661192    3    3   18    4
 0.01071250773384757    3    3   18    8
 -0.04247793782411718    3    3   18   12
 0.4587338202606631    3    3   18   18
 -0.01067944070692524    3    3   19    1
 0.0005469981107638824    3    3   19    2
 -0.01453503109037244    3    3   19    3
 0.002606373392355147    3    3   19    6
 -0.007899722969938919    3    3   19    7
 0.04665096809288008    3    3   19   10
 -0.05457280677600816    3    3   19   11
 0.002154634848534918    3    3   19   15
 0.03120975437434305    3    3   19   16
 0.4988417507736193    3    3   19   19
 0.02068035552951505    4    1    4    1
 0.02136103880003608    4    1    4    2
 -0.01050603222507098    4    1    4    3
 -0.005764016945564672    4    1    6    4
 0.006762077230098577    4    1    7    4
 -0.02516142148832346    4    1    8    1
 -0.01292932777210956    4    1    8    2
 0.006511238646758176    4    1    8    3
 0.00592839898061151    4    1    8    6
 -0.003442855987102926    4    1    8    7
 -0.001755535748420028    4    1   10    4
 0.006444030461005123    4    1   10    8
 -0.01093915658371952    4    1   11    4
 0.01521174193123489    4    1   11    8
 -0.002608234532712497    4    1   12    1
 0.002466496758015334    4    1   12    2
 0.01170154267932151    4    1   12    3
 -0.003636065325586071    4    1   12    6
 -0.0008246040986307809    4    1   12    7
 0.006325217336949469    4    1   12   10
 -0.0007512468897656391    4    1   12   11
 0.01352457561977628    4    1   14    5
 0.01001081713855662    4    1   14    9
 -0.00152023378300942    4    1   14   13
 -0.01441406811440513    4    1   15    4
 0.006745786422797272    4    1   15    8
 0.001352974080240719    4    1   15   12
 -0.007939818034987816    4    1   16    4
 0.006089789735397136    4    1   16    8
 0.002411316261576977    4    1   16   12
 -0.001528358110772606    4    1   17   14
 -0.002740724176522    4    1   18    1
 -0.002465659615159882    4    1   18    2
 -0.005165746992418635    4    1   18    3
 0.004741541964241917    4    1   18    6
 -0.002145317936691195    4    1   18    7
 -0.007092141766733135    4    1   18   10
 0.003709846295878801    4    1   18   11
 0.001346030106342408    4    1   18   15
 0.002637009740149061    4    1   18   16
 0.001574236186274178    4    1   19    4
 -0.002913397725591496    4    1   19    8
 0.003177940114743023    4    1   19   12
 -0.004137096867082352    4    1   19   18
 0.02136103880003607    4    2    4    1
 0.09585259648493998    4    2    4    2
 -0.03697368604301635    4    2    4    3
 -0.01965882849961506    4    2    6    4
 0.03255243048484217    4    2    7    4
 -0.02347756969822345    4    2    8    1
 -0.02896628248292548    4    2    8    2
 0.01171754712456897    4    2    8    3
 0.02619666175221037    4    2    8    6
 -0.001724603648280085    4    2    8    7
 0.01402166105206408    4    2   10    4
 0.02794153517899446    4    2   10    8
 -0.01577348218052585    4    2   11    4
 0.06133885211497359    4    2   11    8
 -0.001692061155113799    4    2   12    1
 0.03087998332068615    4    2   12    2
 0.06197764765928147    4    2   12    3
 -0.01618192462226358    4    2   12    6
 0.003248398129129935    4    2   12    7
 0.01373439719916614    4    2   12   10
 0.001678237084179827    4    2   12   11
 0.0703764793704085    4    2   14    5
 0.02891091440973397    4    2   14    9
 -0.0005340838531712275    4    2   14   13
 -0.07227363401210368    4    2   15    4
 0.01401812714282188    4    2   15    8
 0.0004700442332296589    4    2   15   12
 -0.02848269161037205    4    2   16    4
 0.02051256994737149    4    2   16    8
 0.01982849305983726    4    2   16   12
 -0.01024819043882351    4    2   17   14
 -0.003083178674371735    4    2   18    1
 -0.005422922443160489    4    2   18    2
 -0.0120807291358436    4    2   18    3
 0.02608747450259102    4    2   18    6
 -0.02401504518585742    4    2   18    7
 -0.03515464657045735    4    2   18   10
 0.01590553027784888    4    2   18   11
 0.009144003774910755    4    2   18   15
 0.009580820091237147    4    2   18   16
 -0.00234343933271458    4    2   19    4
 -0.006218780700419473    4    2   19    8
 0.003855207381695493    4    2   19   12
 -0.01492605649942576    4    2   19   18
 -0.01050603222507099    4    3    4    1
 -0.03697368604301635    4    3    4    2
 0.04159627372002542    4    3    4    3
 0.001447918213786936    4    3    6    4
 -0.01256766702576168    4    3    7    4
 0.01165059781566114    4    3    8    1
 0.01190918128818358    4    3    8    2
 -0.01111449273973953    4    3    8    3
 -0.006301749374907266    4    3    8    6
 0.01114047691237945    4    3    8    7
 0.003808772357188925    4    3   10    4
 -0.02729065367620714    4    3   10    8
 0.004878317286498483    4    3   11    4
 -0.02410540225969219    4    3   11    8
 0.003130882651384865    4    3   12    1
 0.02263580268222658    4    3   12    2
 -0.03108682822159971    4    3   12    3
 0.007222308145434095    4    3   12    6
 -0.005503444911865733    4    3   12    7
 -0.01296763255347698    4    3   12   10
 0.002392351196845878    4    3   12   11
 -0.03432227010792859    4    3   14    5
 -0.01392189353274301    4    3   14    9
 0.01858006440557977    4    3   14   13
 0.0356057378574917    4    3   15    4
 -0.006750443212958891    4    3   15    8
 -0.017626233168219    4    3   15   12
 0.01953354023898591    4    3   16    4
 -0.008326083633663179    4    3   16    8
 0.003723944027102126    4    3   16   12
 -0.006550011290969169    4    3   17   14
 -0.0003644343403197209    4    3   18    1
 -0.003709639528668043    4    3   18    2
 0.02798582506959237    4    3   18    3
 -0.005235207346821993    4    3   18    6
 0.004646860870556953    4    3   18    7
 0.01082798656718729    4    3   18   10
 0.002895740562732745    4    3   18   11
 0.005882275561441211    4    3   18   15
 -0.009627728889507798    4    3   18   16
 0.008227843411258384    4    3   19    4
 -0.003358731785603831    4    3   19    8
 -0.005282722936290753    4    3   19   12
 -0.001521297000985511    4    3   19   18
 0.7658447213928981    4    4    1    1
 -0.007271340133254904    4    4    2    1
 0.5330648270397365    4    4    2    2
 0.003900128003701161    4    4    3    1
 -0.03262411284553021    4    4    3    2
 0.4933369341945212    4    4    3    3
 0.5709953479971495    4    4    4    4
 0.4622236892132945    4    4    5    5
 0.001680703296123995    4    4    6    1
 -0.07464635272873983    4    4    6    2
 -0.04327122171472166    4    4    6    3
 0.2977017699646904    4    4    6    6
 -0.0009021862445101096    4    4    7    1
 0.01564186929285542    4    4    7    2
 -0.05657813544347176    4    4    7    3
 -0.01738963474382168    4    4    7    6
 0.3716452062445179    4    4    7    7
 -0.1470702121064606    4    4    8    4
 0.47410362948125    4    4    8    8
 0.136048721420375    4    4    9    5
 0.4850225631873155    4    4    9    9
 0.003912589124869858    4    4   10    1
 -0.006222963255805574    4    4   10    2
 0.1017871970195442    4    4   10    3
 -0.05750169267338848    4    4   10    6
 -0.005399814262272653    4    4   10    7
 0.4579080126718039    4    4   10   10
 0.005150235124638294    4    4   11    1
 -0.09118550682859067    4    4   11    2
 0.009563029552593088    4    4   11    3
 0.09226853118390986    4    4   11    6
 0.001919215267874599    4    4   11    7
 0.006156246085026566    4    4   11   10
 0.4278027865430757    4    4   11   11
 -0.007554135400274527    4    4   12    4
 0.01269481148491774    4    4   12    8
 0.4892338610155793    4    4   12   12
 -0.00461544264840103    4    4   13    5
 -0.01380033196327235    4    4   13    9
 0.4542528118235444    4    4   13   13
 0.5338014937318557    4    4   14   14
 -0.00315931905379892    4    4   15    1
 -0.03052775504737033    4    4   15    2
 0.01775379341394067    4    4   15    3
 0.006283166417783908    4    4   15    6
 -0.01766648671517156    4    4   15    7
 -0.009693860140529271    4    4   15   10
 0.001008623853346074    4    4   15   11
 0.5317561705784053    4    4   15   15
 -0.001180276959975973    4    4   16    1
 -0.008827558303549983    4    4   16    2
 0.0266590044564266    4    4   16    3
 0.01583942976685963    4    4   16    6
 -0.05798300277073268    4    4   16    7
 -0.03439148896101876    4    4   16   10
 0.01830592268274522    4    4   16   11
 0.01570062891489812    4    4   16   15
 0.4648177642363117    4    4   16   16
 -0.00967910229102031    4    4   17    5
 -0.01990949737739409    4    4   17    9
 -0.05646050084468089    4    4   17   13
 0.4129830584848057    4    4   17   17
 -0.01886728956347909    4    4   18    4
 0.01764004326022447    4    4   18    8
 -0.07185755114897806    4    4   18   12
 0.4371706983876586    4    4   18   18
 -0.001773311604664707    4    4   19    1
 0.01508614295199477    4    4   19    2
 0.01915089440843668    4    4   19    3
 -0.02096798825372943    4    4   19    6
 -0.01480201294414099    4    4   19    7
 0.06288772628535322    4    4   19   10
 -0.0744421785262947    4    4   19   11
 0.008801109970742805    4    4   19   15
 0.03331653030696991    4    4   19   16
 0.4548252907840568    4    4   19   19
 0.01166650133586879    5    1    5    1
 0.01374032196344543    5    1    5    2
 -0.00664931445454196    5    1    5    3
 -0.003367664975439698    5    1    6    5
 0.004196908198063676    5    1    7    5
 0.02140664126862497    5    1    9    1
 0.01245208424683647    5    1    9    2
 -0.006106886324207994    5    1    9    3
 -0.005213515273875874    5    1    9    6
 0.003251681975586839    5    1    9    7
 -0.0005111650239649761    5    1   10    5
 -0.005165640376690052    5    1   10    9
 -0.005711100446904911    5    1   11    5
 -0.01277631177209536    5    1   11    9
 -0.002252864823868819    5    1   13    1
 0.001762441428925703    5    1   13    2
 0.009002751513715174    5    1   13    3
 -0.002695087719557644    5    1   13    6
 -0.0006573076919654487    5    1   13    7
 0.004845258656671675    5    1   13   10
 -0.0004138554663035527    5    1   13   11
 0.01168739428032565    5    1   14    4
 -0.005598162785363354    5    1   14    8
 -0.001025314775551804    5    1   14   12
 0.01088641618926988    5    1   15    5
 0.008195827767774876    5    1   15    9
 -0.001158327481261067    5    1   15   13
 -0.005585855379166693    5    1   16    5
 -0.006055812351456164    5    1   16    9
 0.002024938188325955    5    1   16   13
 -0.00220963532282063    5    1   17    1
 -0.001990158766924919    5    1   17    2
 -0.004041077441405331    5    1   17    3
 0.003710772403896274    5    1   17    6
 -0.001648173375564229    5    1   17    7
 -0.005451622611227284    5    1   17   10
 0.00292564594132814    5    1   17   11
 -0.001250384842448005    5    1   17   15
 0.00211362655461592    5    1   17   16
 -0.00110810416469876    5    1   18   14
 0.0007591042852761535    5    1   19    5
 0.002426670632425703    5    1   19    9
 0.002349956143241175    5    1   19   13
 -0.003213449209330236    5    1   19   17
 0.01374032196344543    5    2    5    1
 0.07649873882542316    5    2    5    2
 -0.02800022982344116    5    2    5    3
 -0.01087198852630031    5    2    6    5
 0.02635816491246844    5    2    7    5
 0.02252873189015668    5    2    9    1
 0.03769250539533088    5    2    9    2
 -0.01396059944749044    5    2    9    3