 &FCI NORB=  14,NELEC= 4,MS2=0,
  ORBSYM=1,1,1,1,1,1,1,1,1,1,1,1,1,1,
  ISYM=1,
 &END
 2.273135921388543    1    1    1    1
 -0.1901880605652204    1    1    2    1
 0.480898735080336    1    1    2    2
 0.3313252207112944    1    1    3    3
 0.3313252207112944    1    1    4    4
 0.3313252207112944    1    1    5    5
 -0.1576659016277594    1    1    6    1
 0.1824664921365015    1    1    6    2
 0.3772589481300876    1    1    6    6
 0.1746166946656926    1    1    7    3
 0.5282833779277543    1    1    7    7
 0.1746166946656925    1    1    8    4
 0.5282833779277538    1    1    8    8
 0.1746166946656926    1    1    9    5
 0.5282833779277543    1    1    9    9
 0.4150878958055794    1    1   10   10
 0.4150878958055794    1    1   11   11
 0.4150878958055791    1    1   12   12
 0.4150878958055794    1    1   13   13
 0.4150878958055789    1    1   14   14
 -0.1901880605652203    2    1    1    1
 0.02530580716570976    2    1    2    1
 -0.005659814265755272    2    1    2    2
 -0.00102659267380581    2    1    3    3
 -0.00102659267380581    2    1    4    4
 -0.00102659267380581    2    1    5    5
 0.0205039757865259    2    1    6    1
 -0.004614989744745358    2    1    6    2
 -0.003935777579526857    2    1    6    6
 -0.002684360428771496    2    1    7    3
 -0.007138291056804386    2    1    7    7
 -0.002684360428771496    2    1    8    4
 -0.007138291056804379    2    1    8    8
 -0.002684360428771496    2    1    9    5
 -0.007138291056804386    2    1    9    9
 -0.0005765609848720444    2    1   10   10
 -0.0005765609848720444    2    1   11   11
 -0.0005765609848720314    2    1   12   12
 -0.0005765609848720444    2    1   13   13
 -0.0005765609848720083    2    1   14   14
 0.480898735080336    2    2    1    1
 -0.005659814265755278    2    2    2    1
 0.3434890616502996    2    2    2    2
 0.2786330499749401    2    2    3    3
 0.2786330499749401    2    2    4    4
 0.2786330499749401    2    2    5    5
 -0.004621777865076769    2    2    6    1
 0.0742445518891779    2    2    6    2
 0.2770500736412921    2    2    6    6
 0.08302838150881388    2    2    7    3
 0.3288876304047511    2    2    7    7
 0.08302838150881381    2    2    8    4
 0.3288876304047509    2    2    8    8
 0.08302838150881388    2    2    9    5
 0.3288876304047511    2    2    9    9
 0.3419714741327997    2    2   10   10
 0.3419714741327997    2    2   11   11
 0.3419714741327995    2    2   12   12
 0.3419714741327997    2    2   13   13
 0.3419714741327995    2    2   14   14
 0.002767512527192106    3    1    3    1
 0.005319316163647963    3    1    3    2
 0.001848224194362877    3    1    6    3
 0.007459746423199666    3    1    7    1
 0.006233142626456985    3    1    7    2
 0.006018796754816652    3    1    7    6
 0.003821447143480581    3    1   10    5
 0.004156095159636365    3    1   10    9
 0.003821447143480581    3    1   11    4
 0.004156095159636363    3    1   11    8
 -0.00220631353698244    3    1   12    3
 -0.002399522659193755    3    1   12    7
 -0.00382144714348058    3    1   14    3
 -0.004156095159636363    3    1   14    7
 0.005319316163647963    3    2    3    1
 0.05400677383049685    3    2    3    2
 -0.008079619975713517    3    2    6    3
 0.01246957764192711    3    2    7    1
 0.03179666875827078    3    2    7    2
 0.04424556343458629    3    2    7    6
 0.04090396451104453    3    2   10    5
 0.02608562559075572    3    2   10    9
 0.04090396451104453    3    2   11    4
 0.0260856255907557    3    2   11    8
 -0.02361591492137445    3    2   12    3
 -0.0150605429568026    3    2   12    7
 -0.04090396451104451    3    2   14    3
 -0.02608562559075571    3    2   14    7
 0.3313252207112945    3    3    1    1
 -0.00102659267380581    3    3    2    1
 0.2786330499749401    3    3    2    2
 0.2609740612014143    3    3    3    3
 0.2325179706038386    3    3    4    4
 0.2325179706038386    3    3    5    5
 -0.0009289271011421144    3    3    6    1
 0.0393560570158637    3    3    6    2
 0.2370138487048354    3    3    6    6
 0.04968259330965997    3    3    7    3
 0.2788544486530143    3    3    7    7
 0.04693842216797432    3    3    8    4
 0.2555464810563673    3    3    8    8
 0.04693842216797438    3    3    9    5
 0.2555464810563675    3    3    9    9
 0.288917434573263    3    3   10   10
 0.288917434573263    3    3   11   11
 -0.0005685547379191044    3    3   12    1
 -0.01146204009387838    3    3   12    2
 -0.0007833926467340699    3    3   12    6
 0.2730016004112061    3    3   12   12
 0.2650436833301778    3    3   13   13
 -0.0009847656929599022    3    3   14    1
 -0.01985283580098885    3    3   14    2
 -0.00135687586641944    3    3   14    6
 0.01378351670676139    3    3   14   12
 0.2889174345732629    3    3   14   14
 0.002767512527192108    4    1    4    1
 0.005319316163647964    4    1    4    2
 0.00184822419436288    4    1    6    4
 0.007459746423199665    4    1    8    1
 0.006233142626456982    4    1    8    2
 0.006018796754816655    4    1    8    6
 0.003821447143480582    4    1   11    3
 0.004156095159636367    4    1   11    7
 0.004412627073964881    4    1   12    4
 0.004799045318387509    4    1   12    8
 0.003821447143480582    4    1   13    5
 0.004156095159636367    4    1   13    9
 0.005319316163647964    4    2    4    1
 0.05400677383049686    4    2    4    2
 -0.008079619975713506    4    2    6    4
 0.0124695776419271    4    2    8    1
 0.03179666875827076    4    2    8    2
 0.04424556343458625    4    2    8    6
 0.04090396451104453    4    2   11    3
 0.02608562559075571    4    2   11    7
 0.04723182984274892    4    2   12    4
 0.0301210859136052    4    2   12    8
 0.04090396451104453    4    2   13    5
 0.02608562559075571    4    2   13    9
 0.01422804529878781    4    3    4    3
 0.001372085570842785    4    3    7    4
 0.001372085570842779    4    3    8    3
 0.01165398379832341    4    3    8    7
 0.0009847656929599026    4    3   11    1
 0.01985283580098885    4    3   11    2
 0.001356875866419405    4    3   11    6
 0.006891758353380696    4    3   12   11
 0.01193687562154259    4    3   13   10
 -0.01193687562154259    4    3   14   11
 0.3313252207112945    4    4    1    1
 -0.00102659267380581    4    4    2    1
 0.2786330499749401    4    4    2    2
 0.2325179706038386    4    4    3    3
 0.2609740612014142    4    4    4    4
 0.2325179706038386    4    4    5    5
 -0.0009289271011421146    4    4    6    1
 0.03935605701586371    4    4    6    2
 0.2370138487048352    4    4    6    6
 0.04693842216797438    4    4    7    3
 0.2555464810563675    4    4    7    7
 0.0496825933096599    4    4    8    4
 0.2788544486530141    4    4    8    8
 0.04693842216797438    4    4    9    5
 0.2555464810563675    4    4    9    9
 0.2650436833301778    4    4   10   10
 0.288917434573263    4    4   11   11
 0.001137109475838219    4    4   12    1
 0.0229240801877567    4    4   12    2
 0.00156678529346832    4    4   12    6
 0.2968753516542912    4    4   12   12
 0.288917434573263    4    4   13   13
 0.2650436833301777    4    4   14   14
 0.002767512527192106    5    1    5    1
 0.005319316163647963    5    1    5    2
 0.001848224194362877    5    1    6    5
 0.007459746423199666    5    1    9    1
 0.006233142626456985    5    1    9    2
 0.006018796754816652    5    1    9    6
 0.003821447143480581    5    1   10    3
 0.004156095159636365    5    1   10    7
 -0.00220631353698244    5    1   12    5
 -0.002399522659193755    5    1   12    9
 0.003821447143480581    5    1   13    4
 0.004156095159636363    5    1   13    8
 0.00382144714348058    5    1   14    5
 0.004156095159636363    5    1   14    9
 0.005319316163647963    5    2    5    1
 0.05400677383049685    5    2    5    2
 -0.008079619975713517    5    2    6    5
 0.01246957764192711    5    2    9    1
 0.03179666875827078    5    2    9    2
 0.04424556343458629    5    2    9    6
 0.04090396451104453    5    2   10    3
 0.02608562559075572    5    2   10    7
 -0.02361591492137445    5    2   12    5
 -0.0150605429568026    5    2   12    9
 0.04090396451104453    5    2   13    4
 0.0260856255907557    5    2   13    8
 0.04090396451104451    5    2   14    5
 0.02608562559075571    5    2   14    9
 0.01422804529878781    5    3    5    3
 0.001372085570842781    5    3    7    5
 0.001372085570842781    5    3    9    3
 0.01165398379832341    5    3    9    7
 0.0009847656929599024    5    3   10    1
 0.01985283580098885    5    3   10    2
 0.001356875866419405    5    3   10    6
 -0.0137835167067614    5    3   12   10
 0.0119368756215426    5    3   13   11
 0.01422804529878781    5    4    5    4
 0.00137208557084278    5    4    8    5
 0.001372085570842786    5    4    9    4
 0.01165398379832341    5    4    9    8
 0.0119368756215426    5    4   11   10
 0.0009847656929599024    5    4   13    1
 0.01985283580098885    5    4   13    2
 0.001356875866419405    5    4   13    6
 0.006891758353380697    5    4   13   12
 0.01193687562154259    5    4   14   13
 0.3313252207112945    5    5    1    1
 -0.00102659267380581    5    5    2    1
 0.2786330499749401    5    5    2    2
 0.2325179706038386    5    5    3    3
 0.2325179706038386    5    5    4    4
 0.2609740612014143    5    5    5    5
 -0.0009289271011421144    5    5    6    1
 0.0393560570158637    5    5    6    2
 0.2370138487048354    5    5    6    6
 0.04693842216797438    5    5    7    3
 0.2555464810563675    5    5    7    7
 0.04693842216797432    5    5    8    4
 0.2555464810563673    5    5    8    8
 0.04968259330965997    5    5    9    5
 0.2788544486530143    5    5    9    9
 0.288917434573263    5    5   10   10
 0.2650436833301778    5    5   11   11
 -0.0005685547379191044    5    5   12    1
 -0.01146204009387838    5    5   12    2
 -0.0007833926467340699    5    5   12    6
 0.2730016004112061    5    5   12   12
 0.288917434573263    5    5   13   13
 0.0009847656929599022    5    5   14    1
 0.01985283580098885    5    5   14    2
 0.00135687586641944    5    5   14    6
 -0.01378351670676139    5    5   14   12
 0.2889174345732629    5    5   14   14
 -0.1576659016277589    6    1    1    1
 0.02050397578652596    6    1    2    1
 -0.004621777865076769    6    1    2    2
 -0.0009289271011421232    6    1    3    3
 -0.0009289271011421238    6    1    4    4
 -0.0009289271011421232    6    1    5    5
 0.01687270185688624    6    1    6    1
 -0.003735319947833749    6    1    6    2
 -0.003252275714344134    6    1    6    6
 -0.002312574898260531    6    1    7    3
 -0.00622256040097493    6    1    7    7
 -0.002312574898260531    6    1    8    4
 -0.006222560400974925    6    1    8    8
 -0.002312574898260531    6    1    9    5
 -0.00622256040097493    6    1    9    9
 -0.0005190227073863135    6    1   10   10
 -0.0005190227073863135    6    1   11   11
 -0.0005190227073863735    6    1   12   12
 -0.0005190227073863135    6    1   13   13
 -0.0005190227073863349    6    1   14   14
 0.1824664921365015    6    2    1    1
 -0.004614989744745369    6    2    2    1
 0.07424455188917793    6    2    2    2
 0.03935605701586375    6    2    3    3
 0.03935605701586375    6    2    4    4
 0.03935605701586375    6    2    5    5
 -0.003735319947833822    6    2    6    1
 0.04460884770591838    6    2    6    2
 0.0462666162786373    6    2    6    6
 0.04354020722772147    6    2    7    3
 0.07970327739216657    6    2    7    7
 0.04354020722772145    6    2    8    4
 0.07970327739216648    6    2    8    8
 0.04354020722772147    6    2    9    5
 0.07970327739216657    6    2    9    9
 0.06741590794029237    6    2   10   10
 0.06741590794029237    6    2   11   11
 0.06741590794029229    6    2   12   12
 0.06741590794029237    6    2   13   13
 0.0674159079402922    6    2   14   14
 0.001848224194362877    6    3    3    1
 -0.008079619975713513    6    3    3    2
 0.02005983493614467    6    3    6    3
 0.004573835380372571    6    3    7    1
 0.01289614421145463    6    3    7    2
 -0.005056146709684729    6    3    7    6
 -0.004976303991280221    6    3   10    5
 0.00592149480042337    6    3   10    9
 -0.004976303991280216    6    3   11    4
 0.005921494800423384    6    3   11    8
 0.002873070448935052    6    3   12    3
 -0.003418776617029403    6    3   12    7
 0.004976303991280232    6    3   14    3
 -0.005921494800423394    6    3   14    7
 0.001848224194362879    6    4    4    1
 -0.008079619975713503    6    4    4    2
 0.02005983493614467    6    4    6    4
 0.004573835380372571    6    4    8    1
 0.01289614421145464    6    4    8    2
 -0.005056146709684739    6    4    8    6
 -0.004976303991280219    6    4   11    3
 0.005921494800423407    6    4   11    7
 -0.00574614089787009    6    4   12    4
 0.006837553234058823    6    4   12    8
 -0.004976303991280219    6    4   13    5
 0.005921494800423407    6    4   13    9
 0.001848224194362877    6    5    5    1
 -0.008079619975713513    6    5    5    2
 0.02005983493614467    6    5    6    5
 0.004573835380372571    6    5    9    1
 0.01289614421145463    6    5    9    2
 -0.005056146709684729    6    5    9    6
 -0.004976303991280221    6    5   10    3
 0.00592149480042337    6    5   10    7
 0.002873070448935052    6    5   12    5
 -0.003418776617029403    6    5   12    9
 -0.004976303991280216    6    5   13    4
 0.005921494800423384    6    5   13    8
 -0.004976303991280232    6    5   14    5
 0.005921494800423394    6    5   14    9
 0.3772589481300881    6    6    1    1
 -0.003935777579526802    6    6    2    1
 0.2770500736412922    6    6    2    2
 0.2370138487048356    6    6    3    3
 0.2370138487048356    6    6    4    4
 0.2370138487048356    6    6    5    5
 -0.003252275714344277    6    6    6    1
 0.04626661627863754    6    6    6    2
 0.2388689306120552    6    6    6    6
 0.05152347409159744    6    6    7    3
 0.2711737806644294    6    6    7    7
 0.05152347409159737    6    6    8    4
 0.2711737806644293    6    6    8    8
 0.05152347409159744    6    6    9    5
 0.2711737806644294    6    6    9    9
 0.2733359597432495    6    6   10   10
 0.2733359597432495    6    6   11   11
 0.2733359597432496    6    6   12   12
 0.2733359597432495    6    6   13   13
 0.27333595974325    6    6   14   14
 0.007459746423199666    7    1    3    1
 0.01246957764192711    7    1    3    2
 0.004573835380372576    7    1    6    3
 0.0202989868561051    7    1    7    1
 0.01499668116538571    7    1    7    2
 0.01443928967915814    7    1    7    6
 0.008900578113228572    7    1   10    5
 0.009962978344412331    7    1   10    9
 0.008900578113228572    7    1   11    4
 0.009962978344412326    7    1   11    8
 -0.005138751169615804    7    1   12    3
 -0.005752128229076866    7    1   12    7
 -0.008900578113228566    7    1   14    3
 -0.009962978344412319    7    1   14    7
 0.006233142626456987    7    2    3    1
 0.03179666875827079    7    2    3    2
 0.01289614421145466    7    2    6    3
 0.01499668116538572    7    2    7    1
 0.03597693279653023    7    2    7    2
 0.02960837704480553    7    2    7    6
 0.02460752429235926    7    2   10    5
 0.02479028880667542    7    2   10    9
 0.02460752429235927    7    2   11    4
 0.02479028880667541    7    2   11    8
 -0.01420716077428386    7    2   12    3
 -0.01431267991582262    7    2   12    7
 -0.02460752429235924    7    2   14    3
 -0.0247902888066754    7    2   14    7
 0.1746166946656925    7    3    1    1
 -0.002684360428771497    7    3    2    1
 0.08302838150881388    7    3    2    2
 0.04968259330965995    7    3    3    3
 0.04693842216797438    7    3    4    4
 0.04693842216797438    7    3    5    5
 -0.00231257489826058    7    3    6    1
 0.0435402072277216    7    3    6    2
 0.05152347409159704    7    3    6    6
 0.05329927020523179    7    3    7    3
 0.0919357326012538    7    3    7    7
 0.04048317918148982    7    3    8    4
 0.08058406253022345    7    3    8    8
 0.04048317918148985    7    3    9    5
 0.08058406253022353    7    3    9    9
 0.08190251492331389    7    3   10   10
 0.08190251492331389    7    3   11   11
 -0.0006545614850630147    7    3   12    1
 -0.004822688869688022    7    3   12    2
 -0.003586589792228806    7    3   12    6
 0.07554815815758092    7    3   12   12
 0.07237097977471452    7    3   13   13
 -0.001133733748806871    7    3   14    1
 -0.008353142151396606    7    3   14    2
 -0.006212155746048132    7    3   14    6
 0.005503034383834302    7    3   14   12
 0.08190251492331393    7    3   14   14
 0.001372085570842786    7    4    4    3
 0.006408045511871007    7    4    7    4
 0.006408045511871003    7    4    8    3
 0.005675835035515192    7    4    8    7
 0.001133733748806875    7    4   11    1
 0.008353142151396596    7    4   11    2
 0.006212155746048139    7    4   11    6
 0.002751517191917132    7    4   12   11
 0.00476576757429972    7    4   13   10
 -0.004765767574299721    7    4   14   11
 0.001372085570842782    7    5    5    3
 0.006408045511871007    7    5    7    5
 0.006408045511871007    7    5    9    3
 0.005675835035515191    7    5    9    7
 0.001133733748806875    7    5   10    1
 0.008353142151396594    7    5   10    2
 0.00621215574604813    7    5   10    6
 -0.005503034383834266    7    5   12   10
 0.00476576757429972    7    5   13   11
 0.006018796754816655    7    6    3    1
 0.04424556343458627    7    6    3    2
 -0.005056146709684786    7    6    6    3
 0.01443928967915815    7    6    7    1
 0.02960837704480551    7    6    7    2
 0.04290652634858228    7    6    7    6
 0.031927139921678    7    6   10    5
 0.02308755781855734    7    6   10    9
 0.031927139921678    7    6   11    4
 0.0230875578185573    7    6   11    8
 -0.01843314282823562    7    6   12    3
 -0.0133296077214751    7    6   12    7
 -0.03192713992167796    7    6   14    3
 -0.02308755781855723    7    6   14    7
 0.5282833779277541    7    7    1    1
 -0.007138291056804355    7    7    2    1
 0.328887630404751    7    7    2    2
 0.2788544486530143    7    7    3    3
 0.2555464810563675    7    7    4    4
 0.2555464810563675    7    7    5    5
 -0.006222560400974854    7    7    6    1
 0.07970327739216647    7    7    6    2
 0.2711737806644308    7    7    6    6
 0.09193573260125376    7    7    7    3
 0.3535191891880844    7    7    7    7
 0.08058406253022342    7    7    8    4
 0.3199219401286566    7    7    8    8
 0.0805840625302235    7    7    9    5
 0.3199219401286568    7    7    9    9
 0.3261904589681225    7    7   10   10
 0.3261904589681225    7    7   11   11
 -0.001325099096066671    7    7   12    1
 -0.01123838333288961    7    7   12    2
 -0.004042297587083354    7    7   12    6
 0.3115973867556495    7    7   12   12
 0.3043008506494126    7    7   13   13
 -0.002295138959451075    7    7   14    1
 -0.01946545092750004    7    7   14    2
 -0.007001464800141837    7    7   14    6
 0.01263797125526251    7    7   14   12
 0.3261904589681225    7    7   14   14
 0.007459746423199666    8    1    4    1
 0.0124695776419271    8    1    4    2
 0.004573835380372575    8    1    6    4
 0.02029898685610509    8    1    8    1
 0.01499668116538569    8    1    8    2
 0.01443928967915814    8    1    8    6
 0.008900578113228565    8    1   11    3
 0.009962978344412328    8    1   11    7
 0.01027750233923161    8    1   12    4
 0.01150425645815373    8    1   12    8
 0.008900578113228565    8    1   13    5
 0.009962978344412328    8    1   13    9
 0.006233142626456986    8    2    4    1
 0.03179666875827077    8    2    4    2
 0.01289614421145467    8    2    6    4
 0.0149966811653857    8    2    8    1
 0.03597693279653019    8    2    8    2
 0.02960837704480551    8    2    8    6
 0.02460752429235924    8    2   11    3
 0.0247902888066754    8    2   11    7
 0.02841432154856773    8    2   12    4
 0.02862535983164521    8    2   12    8
 0.02460752429235924    8    2   13    5
 0.0247902888066754    8    2   13    9
 0.00137208557084278    8    3    4    3
 0.006408045511871002    8    3    7    4
 0.006408045511871    8    3    8    3
 0.005675835035515178    8    3    8    7
 0.001133733748806874    8    3   11    1
 0.008353142151396584    8    3   11    2
 0.006212155746048133    8    3   11    6
 0.002751517191917128    8    3   12   11
 0.004765767574299714    8    3   13   10
 -0.004765767574299715    8    3   14   11
 0.1746166946656924    8    4    1    1
 -0.002684360428771498    8    4    2    1
 0.08302838150881378    8    4    2    2
 0.04693842216797433    8    4    3    3
 0.04968259330965989    8    4    4    4
 0.04693842216797433    8    4    5    5
 -0.002312574898260538    8    4    6    1
 0.04354020722772155    8    4    6    2
 0.05152347409159713    8    4    6    6
 0.04048317918148982    8    4    7    3
 0.0805840625302234    8    4    7    7
 0.05329927020523176    8    4    8    4
 0.09193573260125359    8    4    8    8
 0.04048317918148982    8    4    9    5
 0.0805840625302234    8    4    9    9
 0.07237097977471442    8    4   10   10
 0.08190251492331387    8    4   11   11
 0.001309122970126021    8    4   12    1
 0.009645377739376085    8    4   12    2
 0.007173179584457534    8    4   12    6
 0.08507969330618026    8    4   12   12
 0.08190251492331387    8    4   13   13
 0.07237097977471439    8    4   14   14
 0.001372085570842779    8    5    5    4
 0.006408045511871    8    5    8    5
 0.006408045511871002    8    5    9    4
 0.005675835035515179    8    5    9    8
 0.004765767574299714    8    5   11   10
 0.001133733748806874    8    5   13    1
 0.008353142151396584    8    5   13    2
 0.006212155746048133    8    5   13    6
 0.002751517191917128    8    5   13   12
 0.004765767574299715    8    5   14   13
 0.006018796754816653    8    6    4    1
 0.04424556343458625    8    6    4    2
 -0.005056146709684789    8    6    6    4
 0.01443928967915814    8    6    8    1
 0.02960837704480545    8    6    8    2
 0.04290652634858233    8    6    8    6
 0.03192713992167799    8    6   11    3
 0.02308755781855733    8    6   11    7
 0.03686628565647125    8    6   12    4
 0.02665921544295023    8    6   12    8
 0.03192713992167799    8    6   13    5
 0.02308755781855733    8    6   13    9
 0.01165398379832341    8    7    4    3
 0.005675835035515194    8    7    7    4
 0.005675835035515187    8    7    8    3
 0.01679862452971368    8    7    8    7
 0.002295138959451075    8    7   11    1
 0.01946545092750005    8    7   11    2
 0.007001464800141837    8    7   11    6
 0.006318985627631293    8    7   12   11
 0.01094480415935492    8    7   13   10
 -0.01094480415935492    8    7   14   11
 0.5282833779277538    8    8    1    1
 -0.007138291056804337    8    8    2    1
 0.3288876304047507    8    8    2    2
 0.2555464810563673    8    8    3    3
 0.2788544486530141    8    8    4    4
 0.2555464810563673    8    8    5    5
 -0.006222560400974819    8    8    6    1
 0.0797032773921664    8    8    6    2
 0.2711737806644306    8    8    6    6
 0.08058406253022342    8    8    7    3
 0.3199219401286568    8    8    7    7
 0.09193573260125368    8    8    8    4
 0.3535191891880837    8    8    8    8
 0.08058406253022342    8    8    9    5
 0.3199219401286568    8    8    9    9
 0.3043008506494125    8    8   10   10
 0.326190458968122    8    8   11   11
 0.002650198192133339    8    8   12    1
 0.02247676666577927    8    8   12    2
 0.008084595174167174    8    8   12    6
 0.3334869950743589    8    8   12   12
 0.326190458968122    8    8   13   13
 0.3043008506494124    8    8   14   14
 0.007459746423199666    9    1    5    1
 0.01246957764192711    9    1    5    2
 0.004573835380372576    9    1    6    5
 0.0202989868561051    9    1    9    1
 0.01499668116538571    9    1    9    2
 0.01443928967915814    9    1    9    6
 0.008900578113228572    9    1   10    3
 0.009962978344412331    9    1   10    7
 -0.005138751169615804    9    1   12    5
 -0.005752128229076866    9    1   12    9
 0.008900578113228572    9    1   13    4
 0.009962978344412326    9    1   13    8
 0.008900578113228566    9    1   14    5
 0.009962978344412319    9    1   14    9
 0.006233142626456987    9    2    5    1
 0.03179666875827079    9    2    5    2
 0.01289614421145466    9    2    6    5
 0.01499668116538572    9    2    9    1
 0.03597693279653023    9    2    9    2
 0.02960837704480553    9    2    9    6
 0.02460752429235926    9    2   10    3
 0.02479028880667542    9    2   10    7
 -0.01420716077428386    9    2   12    5
 -0.01431267991582262    9    2   12    9
 0.02460752429235927    9    2   13    4
 0.02479028880667541    9    2   13    8
 0.02460752429235924    9    2   14    5
 0.0247902888066754    9    2   14    9
 0.001372085570842782    9    3    5    3
 0.006408045511871007    9    3    7    5
 0.006408045511871007    9    3    9    3
 0.005675835035515191    9    3    9    7
 0.001133733748806875    9    3   10    1
 0.008353142151396594    9    3   10    2
 0.00621215574604813    9    3   10    6
 -0.005503034383834266    9    3   12   10
 0.00476576757429972    9    3   13   11
 0.001372085570842786    9    4    5    4
 0.006408045511871003    9    4    8    5
 0.006408045511871007    9    4    9    4
 0.005675835035515192    9    4    9    8
 0.00476576757429972    9    4   11   10
 0.001133733748806875    9    4   13    1
 0.008353142151396596    9    4   13    2
 0.006212155746048139    9    4   13    6
 0.002751517191917132    9    4   13   12
 0.004765767574299721    9    4   14   13
 0.1746166946656925    9    5    1    1
 -0.002684360428771497    9    5    2    1
 0.08302838150881388    9    5    2    2
 0.04693842216797438    9    5    3    3
 0.04693842216797438    9    5    4    4
 0.04968259330965995    9    5    5    5
 -0.00231257489826058    9    5    6    1
 0.0435402072277216    9    5    6    2
 0.05152347409159704    9    5    6    6
 0.04048317918148985    9    5    7    3
 0.08058406253022353    9    5    7    7
 0.04048317918148982    9    5    8    4
 0.08058406253022345    9    5    8    8
 0.05329927020523179    9    5    9    5
 0.0919357326012538    9    5    9    9
 0.08190251492331389    9    5   10   10
 0.07237097977471452    9    5   11   11
 -0.0006545614850630147    9    5   12    1
 -0.004822688869688022    9    5   12    2
 -0.003586589792228806    9    5   12    6
 0.07554815815758092    9    5   12   12
 0.08190251492331389    9    5   13   13
 0.001133733748806871    9    5   14    1
 0.008353142151396606    9    5   14    2
 0.006212155746048132    9    5   14    6
 -0.005503034383834302    9    5   14   12
 0.08190251492331393    9    5   14   14
 0.006018796754816655    9    6    5    1
 0.04424556343458627    9    6    5    2
 -0.005056146709684786    9    6    6    5
 0.01443928967915815    9    6    9    1
 0.02960837704480551    9    6    9    2
 0.04290652634858228    9    6    9    6
 0.031927139921678    9    6   10    3
 0.02308755781855734    9    6   10    7
 -0.01843314282823562    9    6   12    5
 -0.0133296077214751    9    6   12    9
 0.031927139921678    9    6   13    4
 0.0230875578185573    9    6   13    8
 0.03192713992167796    9    6   14    5
 0.02308755781855723    9    6   14    9
 0.01165398379832341    9    7    5    3
 0.005675835035515194    9    7    7    5
 0.005675835035515194    9    7    9    3
 0.01679862452971368    9    7    9    7
 0.002295138959451075    9    7   10    1
 0.01946545092750005    9    7   10    2
 0.007001464800141854    9    7   10    6
 -0.0126379712552626    9    7   12   10
 0.01094480415935492    9    7   13   11
 0.01165398379832341    9    8    5    4
 0.005675835035515189    9    8    8    5
 0.005675835035515197    9    8    9    4
 0.01679862452971367    9    8    9    8
 0.01094480415935492    9    8   11   10
 0.002295138959451075    9    8   13    1
 0.01946545092750005    9    8   13    2
 0.007001464800141841    9    8   13    6
 0.006318985627631292    9    8   13   12
 0.01094480415935492    9    8   14   13
 0.5282833779277541    9    9    1    1
 -0.007138291056804355    9    9    2    1
 0.328887630404751    9    9    2    2
 0.2555464810563675    9    9    3    3
 0.2555464810563675    9    9    4    4
 0.2788544486530143    9    9    5    5
 -0.006222560400974854    9    9    6    1
 0.07970327739216647    9    9    6    2
 0.2711737806644308    9    9    6    6
 0.0805840625302235    9    9    7    3
 0.3199219401286568    9    9    7    7
 0.08058406253022342    9    9    8    4
 0.3199219401286566    9    9    8    8
 0.09193573260125376    9    9    9    5
 0.3535191891880844    9    9    9    9
 0.3261904589681225    9    9   10   10
 0.3043008506494126    9    9   11   11
 -0.001325099096066671    9    9   12    1
 -0.01123838333288961    9    9   12    2
 -0.004042297587083354    9    9   12    6
 0.3115973867556495    9    9   12   12
 0.3261904589681225    9    9   13   13
 0.002295138959451075    9    9   14    1
 0.01946545092750004    9    9   14    2
 0.007001464800141837    9    9   14    6
 -0.01263797125526251    9    9   14   12
 0.3261904589681225    9    9   14   14
 0.0009847656929599024   10    1    5    3
 0.001133733748806874   10    1    7    5
 0.001133733748806874   10    1    9    3
 0.002295138959451075   10    1    9    7
 0.000438442376847402   10    1   10    1
 0.002056705547597513   10    1   10    2
 0.001151331878519726   10    1   10    6
 -0.001265207923405011   10    1   12   10
 0.001095702202738096   10    1   13   11
 0.01985283580098884   10    2    5    3
 0.008353142151396594   10    2    7    5
 0.008353142151396594   10    2    9    3
 0.01946545092750007   10    2    9    7
 0.002056705547597514   10    2   10    1
 0.03510726859022344   10    2   10    2
 0.008054523744415967   10    2   10    6