 &FCI NORB=   9,NELEC= 4,MS2=0,
  ORBSYM=1,1,1,1,1,1,1,1,1,
  ISYM=1,
 &END
 2.27130649001659    1    1    1    1
 -0.199969155152577    1    1    2    1
 0.4953477451149235    1    1    2    2
 0.3670601606478131    1    1    3    3
 0.3670601606478131    1    1    4    4
 0.3670601606478131    1    1    5    5
 -0.1739863235317625    1    1    6    1
 0.1913426749408251    1    1    6    2
 0.4255893706056431    1    1    6    6
 0.1825459666039031    1    1    7    3
 0.5830239464306674    1    1    7    7
 0.1825459666039031    1    1    8    4
 0.5830239464306674    1    1    8    8
 0.1825459666039031    1    1    9    5
 0.5830239464306674    1    1    9    9
 -0.199969155152577    2    1    1    1
 0.02838820443738341    2    1    2    1
 -0.006668232170154651    2    1    2    2
 -0.001255805453971184    2    1    3    3
 -0.001255805453971184    2    1    4    4
 -0.001255805453971184    2    1    5    5
 0.02387008547430103    2    1    6    1
 -0.005586787271586961    2    1    6    2
 -0.005125959904019625    2    1    6    6
 -0.003409267981058364    2    1    7    3
 -0.009624095022326168    2    1    7    7
 -0.003409267981058364    2    1    8    4
 -0.009624095022326168    2    1    8    8
 -0.003409267981058364    2    1    9    5
 -0.009624095022326168    2    1    9    9
 0.4953477451149236    2    2    1    1
 -0.006668232170154649    2    2    2    1
 0.3544711889392652    2    2    2    2
 0.3054673300202425    2    2    3    3
 0.3054673300202425    2    2    4    4
 0.3054673300202425    2    2    5    5
 -0.005630044593609072    2    2    6    1
 0.07336243027704954    2    2    6    2
 0.3057552295473313    2    2    6    6
 0.07896087136871902    2    2    7    3
 0.3492978549382249    2    2    7    7
 0.07896087136871903    2    2    8    4
 0.3492978549382249    2    2    8    8
 0.07896087136871902    2    2    9    5
 0.3492978549382249    2    2    9    9
 0.003300861667256716    3    1    3    1
 0.006598181530618388    3    1    3    2
 0.00248466540906665    3    1    6    3
 0.009359055441958569    3    1    7    1
 0.006736475385069196    3    1    7    2
 0.007572767892094686    3    1    7    6
 0.006598181530618386    3    2    3    1
 0.06303499760897134    3    2    3    2
 -0.006359492798806855    3    2    6    3
 0.01561123817756746    3    2    7    1
 0.02848842768491342    3    2    7    2
 0.05207131677541361    3    2    7    6
 0.3670601606478132    3    3    1    1
 -0.001255805453971184    3    3    2    1
 0.3054673300202425    3    3    2    2
 0.2966816200927085    3    3    3    3
 0.2633499697979264    3    3    4    4
 0.2633499697979265    3    3    5    5
 -0.001181977166783149    3    3    6    1
 0.04454501782133937    3    3    6    2
 0.2704220796350193    3    3    6    6
 0.05258670885709221    3    3    7    3
 0.3126144926293433    3    3    7    7
 0.04973687497077411    3    3    8    4
 0.2863814724437715    3    3    8    8
 0.0497368749707741    3    3    9    5
 0.2863814724437714    3    3    9    9
 0.003300861667256716    4    1    4    1
 0.006598181530618388    4    1    4    2
 0.00248466540906665    4    1    6    4
 0.009359055441958569    4    1    8    1
 0.006736475385069196    4    1    8    2
 0.007572767892094686    4    1    8    6
 0.006598181530618387    4    2    4    1
 0.06303499760897134    4    2    4    2
 -0.00635949279880686    4    2    6    4
 0.01561123817756746    4    2    8    1
 0.02848842768491341    4    2    8    2
 0.05207131677541365    4    2    8    6
 0.01666582514739106    4    3    4    3
 0.00142491694315904    4    3    7    4
 0.001424916943159041    4    3    8    3
 0.0131165100927859    4    3    8    7
 0.3670601606478132    4    4    1    1
 -0.001255805453971184    4    4    2    1
 0.3054673300202425    4    4    2    2
 0.2633499697979264    4    4    3    3
 0.2966816200927085    4    4    4    4
 0.2633499697979264    4    4    5    5
 -0.001181977166783149    4    4    6    1
 0.04454501782133937    4    4    6    2
 0.2704220796350193    4    4    6    6
 0.04973687497077411    4    4    7    3
 0.2863814724437715    4    4    7    7
 0.05258670885709226    4    4    8    4
 0.3126144926293434    4    4    8    8
 0.04973687497077411    4    4    9    5
 0.2863814724437715    4    4    9    9
 0.003300861667256716    5    1    5    1
 0.006598181530618388    5    1    5    2
 0.00248466540906665    5    1    6    5
 0.009359055441958569    5    1    9    1
 0.006736475385069196    5    1    9    2
 0.007572767892094686    5    1    9    6
 0.006598181530618386    5    2    5    1
 0.06303499760897134    5    2    5    2
 -0.006359492798806855    5    2    6    5
 0.01561123817756746    5    2    9    1
 0.02848842768491342    5    2    9    2
 0.05207131677541361    5    2    9    6
 0.01666582514739106    5    3    5    3
 0.00142491694315904    5    3    7    5
 0.00142491694315904    5    3    9    3
 0.0131165100927859    5    3    9    7
 0.01666582514739106    5    4    5    4
 0.001424916943159041    5    4    8    5
 0.00142491694315904    5    4    9    4
 0.0131165100927859    5    4    9    8
 0.3670601606478132    5    5    1    1
 -0.001255805453971184    5    5    2    1
 0.3054673300202425    5    5    2    2
 0.2633499697979265    5    5    3    3
 0.2633499697979264    5    5    4    4
 0.2966816200927085    5    5    5    5
 -0.001181977166783149    5    5    6    1
 0.04454501782133937    5    5    6    2
 0.2704220796350193    5    5    6    6
 0.0497368749707741    5    5    7    3
 0.2863814724437714    5    5    7    7
 0.04973687497077411    5    5    8    4
 0.2863814724437715    5    5    8    8
 0.05258670885709221    5    5    9    5
 0.3126144926293433    5    5    9    9
 -0.1739863235317623    6    1    1    1
 0.02387008547430102    6    1    2    1
 -0.005630044593609071    6    1    2    2
 -0.001181977166783099    6    1    3    3
 -0.001181977166783099    6    1    4    4
 -0.001181977166783099    6    1    5    5
 0.02067754551572259    6    1    6    1
 -0.004724746319030583    6    1    6    2
 -0.004454026213324111    6    1    6    6
 -0.003123163054676984    6    1    7    3
 -0.0090006757206787    6    1    7    7
 -0.003123163054676985    6    1    8    4
 -0.0090006757206787    6    1    8    8
 -0.003123163054676984    6    1    9    5
 -0.0090006757206787    6    1    9    9
 0.1913426749408251    6    2    1    1
 -0.005586787271586954    6    2    2    1
 0.07336243027704957    6    2    2    2
 0.04454501782133909    6    2    3    3
 0.04454501782133909    6    2    4    4
 0.04454501782133909    6    2    5    5
 -0.004724746319030734    6    2    6    1
 0.04768837403684491    6    2    6    2
 0.05388165575026649    6    2    6    6
 0.04614237478875459    6    2    7    3
 0.08630097757458058    6    2    7    7
 0.04614237478875459    6    2    8    4
 0.08630097757458058    6    2    8    8
 0.04614237478875459    6    2    9    5
 0.08630097757458058    6    2    9    9
 0.002484665409066647    6    3    3    1
 -0.006359492798806896    6    3    3    2
 0.02042458873124312    6    3    6    3
 0.006313245712138545    6    3    7    1
 0.01601714068374459    6    3    7    2
 -0.002219216465004618    6    3    7    6
 0.002484665409066647    6    4    4    1
 -0.006359492798806895    6    4    4    2
 0.02042458873124312    6    4    6    4
 0.006313245712138545    6    4    8    1
 0.01601714068374459    6    4    8    2
 -0.002219216465004618    6    4    8    6
 0.002484665409066647    6    5    5    1
 -0.006359492798806896    6    5    5    2
 0.02042458873124312    6    5    6    5
 0.006313245712138545    6    5    9    1
 0.01601714068374459    6    5    9    2
 -0.002219216465004618    6    5    9    6
 0.4255893706056416    6    6    1    1
 -0.005125959904019627    6    6    2    1
 0.3057552295473308    6    6    2    2
 0.2704220796350195    6    6    3    3
 0.2704220796350196    6    6    4    4
 0.2704220796350195    6    6    5    5
 -0.004454026213324866    6    6    6    1
 0.05388165575026595    6    6    6    2
 0.2749637084060985    6    6    6    6
 0.05746222202609605    6    6    7    3
 0.3084121577582475    6    6    7    7
 0.05746222202609606    6    6    8    4
 0.3084121577582475    6    6    8    8
 0.05746222202609605    6    6    9    5
 0.3084121577582475    6    6    9    9
 0.00935905544195857    7    1    3    1
 0.01561123817756746    7    1    3    2
 0.006313245712138543    7    1    6    3
 0.02699009822268257    7    1    7    1
 0.01663083676943702    7    1    7    2
 0.01846266494456886    7    1    7    6
 0.0067364753850692    7    2    3    1
 0.0284884276849134    7    2    3    2
 0.01601714068374458    7    2    6    3
 0.01663083676943702    7    2    7    1
 0.03169169605894351    7    2    7    2
 0.02861563557540587    7    2    7    6
 0.1825459666039034    7    3    1    1
 -0.00340926798105839    7    3    2    1
 0.07896087136871902    7    3    2    2
 0.05258670885709216    7    3    3    3
 0.04973687497077409    7    3    4    4
 0.04973687497077406    7    3    5    5
 -0.003123163054677006    7    3    6    1
 0.04614237478875459    7    3    6    2
 0.05746222202609616    7    3    6    6
 0.05524007509861766    7    3    7    3
 0.09727184490936663    7    3    7    7
 0.04155079367791287    7    3    8    4
 0.08519967319439631    7    3    8    8
 0.04155079367791288    7    3    9    5
 0.08519967319439635    7    3    9    9
 0.001424916943159041    7    4    4    3
 0.00684464071035237    7    4    7    4
 0.00684464071035237    7    4    8    3
 0.006036085857485074    7    4    8    7
 0.00142491694315904    7    5    5    3
 0.006844640710352366    7    5    7    5
 0.006844640710352366    7    5    9    3
 0.006036085857485072    7    5    9    7
 0.007572767892094686    7    6    3    1
 0.05207131677541364    7    6    3    2
 -0.002219216465004708    7    6    6    3
 0.01846266494456888    7    6    7    1
 0.02861563557540589    7    6    7    2
 0.05062500451925724    7    6    7    6
 0.5830239464306681    7    7    1    1
 -0.009624095022326345    7    7    2    1
 0.3492978549382248    7    7    2    2
 0.3126144926293434    7    7    3    3
 0.2863814724437716    7    7    4    4
 0.2863814724437716    7    7    5    5
 -0.00900067572067886    7    7    6    1
 0.08630097757458065    7    7    6    2
 0.3084121577582483    7    7    6    6
 0.09727184490936658    7    7    7    3
 0.3940256578929798    7    7    7    7
 0.08519967319439631    7    7    8    4
 0.3564667569923746    7    7    8    8
 0.08519967319439638    7    7    9    5
 0.3564667569923745    7    7    9    9
 0.00935905544195857    8    1    4    1
 0.01561123817756746    8    1    4    2
 0.006313245712138543    8    1    6    4
 0.02699009822268257    8    1    8    1
 0.01663083676943702    8    1    8    2
 0.01846266494456885    8    1    8    6
 0.0067364753850692    8    2    4    1
 0.0284884276849134    8    2    4    2
 0.01601714068374458    8    2    6    4
 0.01663083676943702    8    2    8    1
 0.03169169605894351    8    2    8    2
 0.02861563557540588    8    2    8    6
 0.001424916943159041    8    3    4    3
 0.00684464071035237    8    3    7    4
 0.00684464071035237    8    3    8    3
 0.006036085857485068    8    3    8    7
 0.1825459666039033    8    4    1    1
 -0.003409267981058383    8    4    2    1
 0.07896087136871902    8    4    2    2
 0.04973687497077409    8    4    3    3
 0.05258670885709218    8    4    4    4
 0.04973687497077409    8    4    5    5
 -0.003123163054677019    8    4    6    1
 0.0461423747887546    8    4    6    2
 0.05746222202609622    8    4    6    6
 0.04155079367791287    8    4    7    3
 0.08519967319439628    8    4    7    7
 0.05524007509861762    8    4    8    4
 0.09727184490936656    8    4    8    8
 0.04155079367791287    8    4    9    5
 0.08519967319439628    8    4    9    9
 0.001424916943159041    8    5    5    4
 0.00684464071035237    8    5    8    5
 0.00684464071035237    8    5    9    4
 0.006036085857485068    8    5    9    8
 0.007572767892094686    8    6    4    1
 0.05207131677541364    8    6    4    2
 -0.002219216465004715    8    6    6    4
 0.01846266494456888    8    6    8    1
 0.02861563557540588    8    6    8    2
 0.0506250045192572    8    6    8    6
 0.01311651009278591    8    7    4    3
 0.006036085857485069    8    7    7    4
 0.006036085857485069    8    7    8    3
 0.01877945045030278    8    7    8    7
 0.5830239464306681    8    8    1    1
 -0.009624095022326345    8    8    2    1
 0.3492978549382248    8    8    2    2
 0.2863814724437715    8    8    3    3
 0.3126144926293435    8    8    4    4
 0.2863814724437715    8    8    5    5
 -0.00900067572067886    8    8    6    1
 0.08630097757458065    8    8    6    2
 0.3084121577582483    8    8    6    6
 0.08519967319439634    8    8    7    3
 0.3564667569923746    8    8    7    7
 0.09727184490936662    8    8    8    4
 0.3940256578929797    8    8    8    8
 0.08519967319439634    8    8    9    5
 0.3564667569923746    8    8    9    9
 0.00935905544195857    9    1    5    1
 0.01561123817756746    9    1    5    2
 0.006313245712138543    9    1    6    5
 0.02699009822268257    9    1    9    1
 0.01663083676943702    9    1    9    2
 0.01846266494456886    9    1    9    6
 0.0067364753850692    9    2    5    1
 0.0284884276849134    9    2    5    2
 0.01601714068374458    9    2    6    5
 0.01663083676943702    9    2    9    1
 0.03169169605894351    9    2    9    2
 0.02861563557540587    9    2    9    6
 0.00142491694315904    9    3    5    3
 0.006844640710352366    9    3    7    5
 0.006844640710352366    9    3    9    3
 0.006036085857485072    9    3    9    7
 0.001424916943159041    9    4    5    4
 0.00684464071035237    9    4    8    5
 0.00684464071035237    9    4    9    4
 0.006036085857485074    9    4    9    8
 0.1825459666039034    9    5    1    1
 -0.00340926798105839    9    5    2    1
 0.07896087136871902    9    5    2    2
 0.04973687497077406    9    5    3    3
 0.04973687497077409    9    5    4    4
 0.05258670885709216    9    5    5    5
 -0.003123163054677006    9    5    6    1
 0.04614237478875459    9    5    6    2
 0.05746222202609616    9    5    6    6
 0.04155079367791288    9    5    7    3
 0.08519967319439635    9    5    7    7
 0.04155079367791287    9    5    8    4
 0.08519967319439631    9    5    8    8
 0.05524007509861766    9    5    9    5
 0.09727184490936663    9    5    9    9
 0.007572767892094686    9    6    5    1
 0.05207131677541364    9    6    5    2
 -0.002219216465004708    9    6    6    5
 0.01846266494456888    9    6    9    1
 0.02861563557540589    9    6    9    2
 0.05062500451925724    9    6    9    6
 0.01311651009278591    9    7    5    3
 0.006036085857485069    9    7    7    5
 0.006036085857485069    9    7    9    3
 0.01877945045030283    9    7    9    7
 0.01311651009278591    9    8    5    4
 0.006036085857485069    9    8    8    5
 0.006036085857485069    9    8    9    4
 0.01877945045030278    9    8    9    8
 0.5830239464306681    9    9    1    1
 -0.009624095022326345    9    9    2    1
 0.3492978549382248    9    9    2    2
 0.2863814724437716    9    9    3    3
 0.2863814724437716    9    9    4    4
 0.3126144926293434    9    9    5    5
 -0.00900067572067886    9    9    6    1
 0.08630097757458065    9    9    6    2
 0.3084121577582483    9    9    6    6
 0.08519967319439638    9    9    7    3
 0.3564667569923745    9    9    7    7
 0.08519967319439631    9    9    8    4
 0.3564667569923746    9    9    8    8
 0.09727184490936658    9    9    9    5
 0.3940256578929798    9    9    9    9
 -7.940504281287255    1    1  0  0
 0.20663738737586    2    1  0  0
 -1.618073860737954    2    2  0  0
 -1.1962837806886    3    3  0  0
 -1.1962837806886    4    4  0  0
 -1.1962837806886    5    5  0  0
 0.179659625479543    6    1  0  0
 -0.432177693835615    6    2  0  0
 -0.9545689706001157    6    6  0  0
 -0.4851661934274377    7    3  0  0
 -1.341030801034236    7    7  0  0
 -0.4851661934274378    8    4  0  0
 -1.341030801034236    8    8  0  0
 -0.4851661934274377    9    5  0  0
 -1.341030801034236    9    9  0  0
 0  0  0  0  0
