 &FCI NORB=  18,NELEC= 6,MS2=0,
  ORBSYM=1,1,1,1,1,1,1,1,1,1,1,1,1,1,1,1,1,1,
  ISYM=1,
 &END
 1.066109068936887    1    1    1    1
 1.089653469316007    1    1    2    2
 -0.07585171941547721    1    1    3    1
 0.3227672870850707    1    1    3    3
 0.2693260199650445    1    1    4    4
 0.2693260199650445    1    1    5    5
 0.03850150978160261    1    1    6    2
 0.2103330862654241    1    1    6    6
 -0.0265481670562505    1    1    7    1
 0.05060762486322127    1    1    7    3
 0.1661622033010123    1    1    7    7
 0.1583929662132733    1    1    8    8
 0.1583929662132735    1    1    9    9
 -0.09862596348269231    1    1   10    4
 0.2495815558216537    1    1   10   10
 -0.0986259634826923    1    1   11    5
 0.2495815558216537    1    1   11   11
 -0.0394820531024533    1    1   12    2
 -0.06235984451522247    1    1   12    6
 0.1783018592119201    1    1   12   12
 -0.04040842950655085    1    1   13    1
 0.07763907555511201    1    1   13    3
 0.02491714655681119    1    1   13    7
 0.2143535480923665    1    1   13   13
 0.06218214762244996    1    1   14    2
 0.06074010098214236    1    1   14    6
 -0.05867012622317522    1    1   14   12
 0.2390666777197496    1    1   14   14
 -0.05372543286957669    1    1   15    1
 0.0521851995867364    1    1   15    3
 0.05522288205150802    1    1   15    7
 0.0182949629950222    1    1   15   13
 0.4433620567809008    1    1   15   15
 -0.04478124490572291    1    1   16    8
 0.3573528626290646    1    1   16   16
 -0.04478124490572229    1    1   17    9
 0.3573528626290642    1    1   17   17
 -0.2214382911876426    1    1   18    2
 -0.04799750782960153    1    1   18    6
 0.05312124583710389    1    1   18   12
 -0.115375035224212    1    1   18   14
 0.7734080792798292    1    1   18   18
 0.5660109467644202    2    1    2    1
 -0.06915946408535445    2    1    3    2
 0.02723988090447792    2    1    6    1
 -0.03930726824307246    2    1    6    3
 -0.02451025678358415    2    1    7    2
 0.007672690077707333    2    1    7    6
 0.01423984065194292    2    1    8    5
 0.01423984065194292    2    1    9    4
 0.0007895513827253115    2    1   10    9
 0.0007895513827253115    2    1   11    8
 -0.02836570371562832    2    1   12    1
 0.03199738560444152    2    1   12    3
 0.01383274756105189    2    1   12    7
 -0.03144480353736764    2    1   13    2
 -0.01620983460323393    2    1   13    6
 0.01306183735746641    2    1   13   12
 0.04140179049700092    2    1   14    1
 -0.03953914072348805    2    1   14    3
 -0.01091348141292568    2    1   14    7
 -0.03044633340646978    2    1   14   13
 -0.1219430962762018    2    1   15    2
 0.01482273886372739    2    1   15    6
 -0.009540131043864801    2    1   15   12
 0.0228559318545829    2    1   15   14
 -0.04383473059095043    2    1   16    5
 0.05066867643995682    2    1   16   11
 -0.04383473059095042    2    1   17    4
 0.05066867643995681    2    1   17   10
 -0.1729058850139677    2    1   18    1
 0.0743698380710627    2    1   18    3
 0.03005834762826499    2    1   18    7
 0.02934303980375746    2    1   18   13
 0.04648620249880143    2    1   18   15
 1.089653469316006    2    2    1    1
 1.12396424592211    2    2    2    2
 -0.08098737990459398    2    2    3    1
 0.3231673010218979    2    2    3    3
 0.2681506152191615    2    2    4    4
 0.2681506152191615    2    2    5    5
 0.04014410477507759    2    2    6    2
 0.2114134949747915    2    2    6    6
 -0.02822305628499862    2    2    7    1
 0.05023042558046489    2    2    7    3
 0.1663070952796347    2    2    7    7
 0.1585127839724631    2    2    8    8
 0.1585127839724631    2    2    9    9
 -0.09749823851451035    2    2   10    4
 0.2480464325213623    2    2   10   10
 -0.09749823851451032    2    2   11    5
 0.2480464325213622    2    2   11   11
 -0.04137776840798562    2    2   12    2
 -0.06293009585309398    2    2   12    6
 0.1790048959466716    2    2   12   12
 -0.04185454690325488    2    2   13    1
 0.07780409917295782    2    2   13    3
 0.02468583669256693    2    2   13    7
 0.2140260104355746    2    2   13   13
 0.06334695354213754    2    2   14    2
 0.06197301270234147    2    2   14    6
 -0.05973115689292342    2    2   14   12
 0.2410044052298321    2    2   14   14
 -0.07210793415759882    2    2   15    1
 0.05096650522831381    2    2   15    3
 0.05504924321195429    2    2   15    7
 0.01764396486063837    2    2   15   13
 0.4403249307032834    2    2   15   15
 -0.04492701861983659    2    2   16    8
 0.3585927111115603    2    2   16   16
 -0.04492701861983575    2    2   17    9
 0.3585927111115619    2    2   17   17
 -0.2382604913568306    2    2   18    2
 -0.05046556581703815    2    2   18    6
 0.05571269655301827    2    2   18   12
 -0.1201677892656511    2    2   18   14
 0.7981462911208086    2    2   18   18
 -0.07585171941547718    3    1    1    1
 -0.08098737990459398    3    1    2    2
 0.0109362460079407    3    1    3    1
 -0.002725566565100486    3    1    3    3
 -0.000744324609028896    3    1    4    4
 -0.000744324609028896    3    1    5    5
 -0.005177575878817502    3    1    6    2
 -0.0006599204609375659    3    1    6    6
 0.003988669375975271    3    1    7    1
 -0.0009505918371397609    3    1    7    3
 -0.0004573652432990471    3    1    7    7
 -4.280032061014794e-05    3    1    8    8
 -4.280032061014799e-05    3    1    9    9
 0.001215926186812141    3    1   10    4
 -0.001931108184025593    3    1   10   10
 0.001215926186812141    3    1   11    5
 -0.001931108184025593    3    1   11   11
 0.005404275882023043    3    1   12    2
 0.0005629680530600221    3    1   12    6
 -0.0006354666479897097    3    1   12   12
 0.0053347950048748    3    1   13    1
 -0.001284279135218801    3    1   13    3
 -0.0004738971792554699    3    1   13    7
 -0.0007377043075385979    3    1   13   13
 -0.008423611535139085    3    1   14    2
 -0.001015444678888405    3    1   14    6
 0.001015376016138097    3    1   14   12
 -0.001975155079636737    3    1   14   14
 0.01026332295232404    3    1   15    1
 -0.002967281351961565    3    1   15    3
 -0.001035896479813825    3    1   15    7
 -0.0007919720003767134    3    1   15   13
 -0.01158476686804802    3    1   15   15
 8.302295434542741e-05    3    1   16    8
 -0.004534694820245605    3    1   16   16
 8.302295434542813e-05    3    1   17    9
 -0.004534694820245604    3    1   17   17
 0.03652458334695552    3    1   18    2
 0.004129101044490067    3    1   18    6
 -0.00442702587652519    3    1   18   12
 0.006887103178096612    3    1   18   14
 -0.04446025577399661    3    1   18   18
 -0.06915946408535445    3    2    2    1
 0.01127550189021327    3    2    3    2
 -0.004652715734769742    3    2    6    1
 -0.0001066172745631372    3    2    6    3
 0.00402022910549091    3    2    7    2
 0.0008433548149018413    3    2    7    6
 0.0005207028460452215    3    2    8    5
 0.0005207028460452215    3    2    9    4
 0.0001095175600711501    3    2   10    9
 0.0001095175600711501    3    2   11    8
 0.004869661143266614    3    2   12    1
 -0.0002739753729525229    3    2   12    3
 8.090998263438511e-06    3    2   12    7
 0.004994323697693998    3    2   13    2
 3.969149465658208e-05    3    2   13    6
 -0.0001931762198179082    3    2   13   12
 -0.007534902396799483    3    2   14    1
 0.0008368003558866139    3    2   14    3
 0.0004308875230846305    3    2   14    7
 -3.942306194697468e-05    3    2   14   13
 0.01494650167013985    3    2   15    2
 0.001510252233856039    3    2   15    6
 -0.001497474228618309    3    2   15   12
 0.001316298136912333    3    2   15   14
 0.0002230570666910683    3    2   16    5
 -0.001077614919540102    3    2   16   11
 0.0002230570666910684    3    2   17    4
 -0.001077614919540102    3    2   17   10
 0.03365674857181882    3    2   18    1
 -0.008401475138952423    3    2   18    3
 -0.003002736534024115    3    2   18    7
 -0.002539887890697494    3    2   18   13
 -0.009361443520142614    3    2   18   15
 0.3227672870850707    3    3    1    1
 0.3231673010218979    3    3    2    2
 -0.002725566565100473    3    3    3    1
 0.2459760896265576    3    3    3    3
 0.2237827894558004    3    3    4    4
 0.2237827894558004    3    3    5    5
 0.00188675013339173    3    3    6    2
 0.1885133050619684    3    3    6    6
 -0.0003065529090932586    3    3    7    1
 0.0243869886802032    3    3    7    3
 0.1539903236632567    3    3    7    7
 0.1545443392502896    3    3    8    8
 0.1545443392502893    3    3    9    9
 -0.04989160815918755    3    3   10    4
 0.1873580377046725    3    3   10   10
 -0.04989160815918756    3    3   11    5
 0.1873580377046725    3    3   11   11
 -0.001862692777278407    3    3   12    2
 -0.04257383000293263    3    3   12    6
 0.1586579640867672    3    3   12   12
 -0.00133281398036171    3    3   13    1
 0.03548690540912539    3    3   13    3
 0.01012958200943177    3    3   13    7
 0.1836592327857642    3    3   13   13
 0.002705127480615905    3    3   14    2
 0.03185763842189924    3    3   14    6
 -0.03109970381727567    3    3   14   12
 0.1888147118882421    3    3   14   14
 -0.001502710370028614    3    3   15    1
 0.01107305788108025    3    3   15    3
 0.0341033560492825    3    3   15    7
 0.002577059212581934    3    3   15   13
 0.2491241333331652    3    3   15   15
 -0.0344969620969395    3    3   16    8
 0.2376357994974588    3    3   16   16
 -0.03449696209693934    3    3   17    9
 0.2376357994974591    3    3   17   17
 -0.008065620192402851    3    3   18    2
 -0.002622321394567904    3    3   18    6
 0.004077206955277956    3    3   18   12
 -0.02896338695623325    3    3   18   14
 0.2996089353220844    3    3   18   18
 0.002653708149288734    4    1    4    1
 0.005595529505691644    4    1    4    3
 0.001749142017716977    4    1    7    4
 0.0001297886268246347    4    1    9    2
 -0.001588885441474322    4    1    9    6
 -0.004091694038799864    4    1   10    1
 -0.003879425045926325    4    1   10    3
 -0.001928442576282792    4    1   10    7
 0.0009397524830755248    4    1   12    9
 0.00103528308092566    4    1   13    4
 -0.003332826670424512    4    1   13   10
 0.0003832783053318931    4    1   14    9
 0.002828718564969238    4    1   15    4
 -0.003460088176922035    4    1   15   10
 -0.005586648768764934    4    1   17    2
 0.002467662425366298    4    1   17    6
 -0.002761004144285075    4    1   17   12
 0.00266346039970355    4    1   17   14
 -9.098424263296572e-05    4    1   18    9
 -0.004653072377044565    4    1   18   17
 0.001362702980241482    4    2    4    2
 -0.001023965021331488    4    2    6    4
 7.297768876346658e-05    4    2    9    1
 0.0007014585989626791    4    2    9    3
 -0.000120401904649855    4    2    9    7
 -0.002147549676494691    4    2   10    2
 0.0005892533015812609    4    2   10    6
 0.0009779962392241571    4    2   12    4
 -0.0007459434663425439    4    2   12   10
 5.919063718722849e-05    4    2   13    9
 -0.0007558998195629019    4    2   14    4
 0.001027238147381782    4    2   14   10
 -0.0001796407752908694    4    2   15    9
 -0.003793481674567844    4    2   17    1
 -0.00247075912893838    4    2   17    3
 -0.0007376259229757803    4    2   17    7
 -0.001299794169548388    4    2   17   13
 0.000133404440494381    4    2   17   15
 0.001111433078285154    4    2   18    4
 -0.001904452847001841    4    2   18   10
 0.005595529505691644    4    3    4    1
 0.04735636006607592    4    3    4    3
 0.01044394498432832    4    3    7    4
 0.0005671823471244216    4    3    9    2
 -0.0226064411997442    4    3    9    6
 -0.007750126967924378    4    3   10    1
 -0.01755858318710294    4    3   10    3
 -0.01353469683979192    4    3   10    7
 0.01058529543597187    4    3   12    9
 -0.008660171948501069    4    3   13    4
 -0.02862196585769279    4    3   13   10
 0.01258065783545583    4    3   14    9
 0.01143684468237148    4    3   15    4
 -0.01138633901398551    4    3   15   10
 -0.009989466929362723    4    3   17    2
 0.0189048611520245    4    3   17    6
 -0.02196132288631862    4    3   17   12
 0.01644530896805221    4    3   17   14
 -0.002023678001280329    4    3   18    9
 -0.002406268700669106    4    3   18   17
 0.2693260199650445    4    4    1    1
 0.2681506152191615    4    4    2    2
 -0.0007443246090288732    4    4    3    1
 0.2237827894558005    4    4    3    3
 0.2241325931672472    4    4    4    4
 0.199465280093143    4    4    5    5
 0.001172429485240183    4    4    6    2
 0.1709574562667178    4    4    6    6
 0.0003176897294902572    4    4    7    1
 0.0227950735571631    4    4    7    3
 0.1439296305623141    4    4    7    7
 0.143623517319249    4    4    8    8
 0.1550946727868833    4    4    9    9
 -0.04094514748327594    4    4   10    4
 0.1850824895403799    4    4   10   10
 -0.03701496897985839    4    4   11    5
 0.1695833164085817    4    4   11   11
 -0.001069876258594209    4    4   12    2
 -0.03632882940567887    4    4   12    6
 0.1472450545392282    4    4   12   12
 -0.0004732053022279348    4    4   13    1
 0.02281977379895601    4    4   13    3
 0.008014256522368701    4    4   13    7
 0.1776201339720986    4    4   13   13
 0.001924342020320932    4    4   14    2
 0.02030723889394629    4    4   14    6
 -0.02188850299601269    4    4   14   12
 0.1729754796142806    4    4   14   14
 0.002142701299927907    4    4   15    1
 0.01383948338745101    4    4   15    3
 0.02874263095675324    4    4   15    7
 0.004059261115234493    4    4   15   13
 0.2178315120709625    4    4   15   15
 -0.02676157246493031    4    4   16    8
 0.204764472697378    4    4   16   16
 -0.03110734235891793    4    4   17    9
 0.2198521655286403    4    4   17   17
 -0.002637583268414866    4    4   18    2
 -0.0009046368609461833    4    4   18    6
 0.001304527185465767    4    4   18   12
 -0.0204724750262219    4    4   18   14
 0.2520185281797994    4    4   18   18
 0.002653708149288734    5    1    5    1
 0.005595529505691644    5    1    5    3
 0.001749142017716977    5    1    7    5
 0.0001297886268246347    5    1    8    2
 -0.001588885441474322    5    1    8    6
 -0.004091694038799864    5    1   11    1
 -0.003879425045926325    5    1   11    3
 -0.001928442576282793    5    1   11    7
 0.0009397524830755254    5    1   12    8
 0.00103528308092566    5    1   13    5
 -0.003332826670424511    5    1   13   11
 0.0003832783053318937    5    1   14    8
 0.002828718564969237    5    1   15    5
 -0.003460088176922034    5    1   15   11
 -0.005586648768764936    5    1   16    2
 0.002467662425366298    5    1   16    6
 -0.002761004144285082    5    1   16   12
 0.002663460399703562    5    1   16   14
 -9.098424263296551e-05    5    1   18    8
 -0.004653072377044559    5    1   18   16
 0.001362702980241482    5    2    5    2
 -0.001023965021331488    5    2    6    5
 7.297768876346659e-05    5    2    8    1
 0.0007014585989626792    5    2    8    3
 -0.0001204019046498555    5    2    8    7
 -0.002147549676494691    5    2   11    2
 0.0005892533015812636    5    2   11    6
 0.0009779962392241557    5    2   12    5
 -0.0007459434663425264    5    2   12   11
 5.919063718722789e-05    5    2   13    8
 -0.0007558998195629035    5    2   14    5
 0.001027238147381797    5    2   14   11
 -0.0001796407752908694    5    2   15    8
 -0.003793481674567844    5    2   16    1
 -0.00247075912893838    5    2   16    3
 -0.0007376259229757824    5    2   16    7
 -0.001299794169548388    5    2   16   13
 0.0001334044404943821    5    2   16   15
 0.001111433078285155    5    2   18    5
 -0.001904452847001837    5    2   18   11
 0.005595529505691644    5    3    5    1
 0.04735636006607592    5    3    5    3
 0.01044394498432832    5    3    7    5
 0.0005671823471244215    5    3    8    2
 -0.02260644119974421    5    3    8    6
 -0.007750126967924378    5    3   11    1
 -0.01755858318710294    5    3   11    3
 -0.01353469683979192    5    3   11    7
 0.01058529543597187    5    3   12    8
 -0.008660171948501069    5    3   13    5
 -0.02862196585769279    5    3   13   11
 0.01258065783545583    5    3   14    8
 0.01143684468237148    5    3   15    5
 -0.01138633901398551    5    3   15   11
 -0.009989466929362725    5    3   16    2
 0.01890486115202452    5    3   16    6
 -0.02196132288631845    5    3   16   12
 0.01644530896805239    5    3   16   14
 -0.002023678001280329    5    3   18    8
 -0.002406268700669106    5    3   18   16
 0.01233365653705208    5    4    5    4
 0.005735577733817053    5    4    9    8
 -0.001965089251708771    5    4   10    5
 -0.001965089251708771    5    4   11    4
 0.007749586565899184    5    4   11   10
 -0.002172884946993902    5    4   16    9
 -0.002172884946993902    5    4   17    8
 0.007543846415631317    5    4   17   16
 0.2693260199650445    5    5    1    1
 0.2681506152191615    5    5    2    2
 -0.0007443246090288723    5    5    3    1
 0.2237827894558005    5    5    3    3
 0.1994652800931431    5    5    4    4
 0.2241325931672472    5    5    5    5
 0.001172429485240249    5    5    6    2
 0.1709574562667252    5    5    6    6
 0.0003176897294902586    5    5    7    1
 0.0227950735571631    5    5    7    3
 0.1439296305623142    5    5    7    7
 0.1550946727868834    5    5    8    8
 0.1436235173192489    5    5    9    9
 -0.03701496897985841    5    5   10    4
 0.1695833164085817    5    5   10   10
 -0.04094514748327593    5    5   11    5
 0.1850824895403799    5    5   11   11
 -0.001069876258593717    5    5   12    2
 -0.03632882940563294    5    5   12    6
 0.1472450545395103    5    5   12   12
 -0.0004732053022279241    5    5   13    1
 0.02281977379895599    5    5   13    3
 0.008014256522368637    5    5   13    7
 0.1776201339720986    5    5   13   13
 0.001924342020321507    5    5   14    2
 0.02030723889399267    5    5   14    6
 -0.02188850299572852    5    5   14   12
 0.1729754796145651    5    5   14   14
 0.002142701299927886    5    5   15    1
 0.013839483387451    5    5   15    3
 0.02874263095675301    5    5   15    7
 0.004059261115234599    5    5   15   13
 0.2178315120709629    5    5   15   15
 -0.03110734235891777    5    5   16    8
 0.2198521655286405    5    5   16   16
 -0.02676157246493066    5    5   17    9
 0.2047644726973765    5    5   17   17
 -0.002637583268414691    5    5   18    2
 -0.0009046368609455357    5    5   18    6
 0.00130452718546988    5    5   18   12
 -0.02047247502621907    5    5   18   14
 0.2520185281798022    5    5   18   18
 0.02723988090447757    6    1    2    1
 -0.004652715734769596    6    1    3    2
 0.002001537430827104    6    1    6    1
 0.0004413933567372387    6    1    6    3
 -0.001664364765428527    6    1    7    2
 -0.0004474061513498058    6    1    7    6
 -0.0003532905817918329    6    1    8    5
 -0.0003532905817918329    6    1    9    4
 -6.537899275601023e-05    6    1   10    9
 -6.537899275601029e-05    6    1   11    8
 -0.002075355539947985    6    1   12    1
 -0.000201922428152336    6    1   12    3
 -0.0001872283458462094    6    1   12    7
 -0.002097104270369609    6    1   13    2
 0.0001810924359934848    6    1   13    6
 -6.404539373589761e-05    6    1   13   12
 0.003412704221291233    6    1   14    1
 0.0001008391002423685    6    1   14    3
 -8.476273865158389e-05    6    1   14    7
 0.0003783262385369152    6    1   14   13
 -0.005131768240451608    6    1   15    2
 -0.0008962106472031406    6    1   15    6
 0.0009178053070284327    6    1   15   12
 -0.001021566673928927    6    1   15   14
 0.0002208691151637394    6    1   16    5
 0.0001128021130230831    6    1   16   11
 0.0002208691151637395    6    1   17    4
 0.0001128021130230831    6    1   17   10
 -0.01422471675477692    6    1   18    1
 0.003124017473061777    6    1   18    3
 0.001103140858907213    6    1   18    7
 0.0008780861367064149    6    1   18   13
 0.004416029196415486    6    1   18   15
 0.03850150978160174    6    2    1    1
 0.04014410477507811    6    2    2    2
 -0.005177575878817393    6    2    3    1
 0.001886750133391652    6    2    3    3
 0.00117242948524043    6    2    4    4
 0.00117242948524043    6    2    5    5
 0.002661342869915852    6    2    6    2
 -0.0001715258320723392    6    2    6    6
 -0.001883069397055592    6    2    7    1
 0.0009930550354324687    6    2    7    3
 0.0001617542148986511    6    2    7    7
 -6.0336191593467e-05    6    2    8    8
 -6.033619159346696e-05    6    2    9    9
 -0.001291042349706647    6    2   10    4
 0.001839429180632272    6    2   10   10
 -0.001291042349706647    6    2   11    5
 0.001839429180632272    6    2   11   11
 -0.002739173225499444    6    2   12    2
 -0.0001863627035540578    6    2   12    6
 0.0001074389886033295    6    2   12   12
 -0.002581294997702849    6    2   13    1
 0.0008022471583199526    6    2   13    3
 0.0004560431884502536    6    2   13    7
 0.0007045591782829942    6    2   13   13
 0.004556165205887284    6    2   14    2
 0.0001058260248289872    6    2   14    6
 -0.000226080454696087    6    2   14   12
 0.0004309985396540343    6    2   14   14
 -0.00316647555752847    6    2   15    1
 0.002826112392925205    6    2   15    3
 0.000850721024681627    6    2   15    7
 0.001166400578847012    6    2   15   13
 0.006839920854526305    6    2   15   15
 -2.379214509447916e-05    6    2   16    8
 0.002673293028555226    6    2   16   16
 -2.379214509447888e-05    6    2   17    9
 0.002673293028555225    6    2   17   17
 -0.0179678088006979    6    2   18    2
 -0.001933320428587247    6    2   18    6
 0.002071223632298006    6    2   18   12
 -0.002971571696268604    6    2   18   14
 0.02119845469049597    6    2   18   18
 -0.03930726824307214    6    3    2    1
 -0.0001066172745630618    6    3    3    2
 0.0004413933567376895    6    3    6    1
 0.03667758823114763    6    3    6    3
 0.0001703687693519585    6    3    7    2
 -0.02797560986609922    6    3    7    6
 -0.02147489423945436    6    3    8    5
 -0.02147489423945436    6    3    9    4
 -0.008890946414484492    6    3   10    9
 -0.008890946414484492    6    3   11    8
 -0.0003815134215803393    6    3   12    1
 -0.02127966527631365    6    3   12    3
 -0.01924086227729664    6    3   12    7
 -0.0004786989132767366    6    3   13    2
 0.008782868041989252    6    3   13    6
 -0.002488580372112321    6    3   13   12
 0.001752871435978769    6    3   14    1
 0.01746367074382765    6    3   14    3
 0.005517658952039292    6    3   14    7
 0.02477692609099231    6    3   14   13
 0.01062238982374609    6    3   15    2
 -0.02156734941669552    6    3   15    6
 0.01942403239570543    6    3   15   12
 -0.01913254133026751    6    3   15   14
 0.02497289058553062    6    3   16    5
 -0.02106936696506823    6    3   16   11
 0.02497289058553062    6    3   17    4
 -0.02106936696506824    6    3   17   10
 -0.002459681252912304    6    3   18    1
 -0.0004645886761009483    6    3   18    3
 -0.002826223651860234    6    3   18    7
 -0.001104282449170488    6    3   18   13
 -0.002415853698760314    6    3   18   15
 -0.001023965021331502    6    4    4    2
 0.00986711587140077    6    4    6    4
 -0.0001211735321259438    6    4    9    1
 -0.008611398937407571    6    4    9    3
 0.006647658849387555    6    4    9    7
 0.00132655543489974    6    4   10    2
 0.0005262974394646443    6    4   10    6
 -0.006980549363006645    6    4   12    4
 0.002905052560806247    6    4   12   10
 0.003683563249966311    6    4   13    9
 -0.0004004068410381953    6    4   14    4
 -0.007528453057683    6    4   14   10
 0.002038801225442512    6    4   15    9
 0.002180247532765048    6    4   17    1
 0.01116164918208758    6    4   17    3
 0.002508932276030764    6    4   17    7
 0.003711655866751645    6    4   17   13
 -0.004681182956701014    6    4   17   15
 0.001650298354015843    6    4   18    4
 -0.0004956679908763649    6    4   18   10
 -0.001023965021331502    6    5    5    2
 0.00986711587140077    6    5    6    5
 -0.0001211735321259439    6    5    8    1
 -0.008611398937407571    6    5    8    3
 0.006647658849387558    6    5    8    7
 0.00132655543489974    6    5   11    2
 0.0005262974394646406    6    5   11    6
 -0.006980549363006645    6    5   12    5
 0.002905052560806247    6    5   12   11
 0.003683563249966311    6    5   13    8
 -0.0004004068410381953    6    5   14    5
 -0.007528453057683    6    5   14   11
 0.002038801225442512    6    5   15    8
 0.002180247532765048    6    5   16    1
 0.01116164918208758    6    5   16    3
 0.00250893227603077    6    5   16    7
 0.00371165586675164    6    5   16   13
 -0.004681182956701007    6    5   16   15
 0.001650298354015842    6    5   18    5
 -0.0004956679908763649    6    5   18   11
 0.2103330862654448    6    6    1    1
 0.2114134949748568    6    6    2    2
 -0.0006599204609341741    6    6    3    1
 0.1885133050619896    6    6    3    3
 0.1709574562667353    6    6    4    4
 0.1709574562667353    6    6    5    5
 -0.0001715258321287656    6    6    6    2
 0.1800362241686574    6    6    6    6
 9.075715968772897e-05    6    6    7    1
 0.001435975551253532    6    6    7    3
 0.1574252905670737    6    6    7    7
 0.1469737505965306    6    6    8    8
 0.1469737505965306    6    6    9    9
 -0.02311734167968841    6    6   10    4
 0.1481456018457463    6    6   10   10
 -0.02311734167968841    6    6   11    5
 0.1481456018457463    6    6   11   11
 5.636078679271688e-05    6    6   12    2
 -0.01910881289629017    6    6   12    6
 0.1531616904853763    6    6   12   12
 -0.0002138562419329824    6    6   13    1
 0.02109647753517234    6    6   13    3
 0.002272209476453884    6    6   13    7
 0.1493300939493041    6    6   13   13
 -0.0007295939414845822    6    6   14    2
 0.02204565398307583    6    6   14    6
 -0.01940325408212707    6    6   14   12
 0.1632942147868736    6    6   14   14
 -0.003074798455684236    6    6   15    1
 -0.009582690239204786    6    6   15    3
 0.01911230633792994    6    6   15    7
 -0.00533203226959242    6    6   15   13
 0.1930142189386067    6    6   15   15
 -0.02184559271881333    6    6   16    8
 0.1828715126233484    6    6   16   16
 -0.02184559271881284    6    6   17    9
 0.182871512623349    6    6   17   17
 2.739228346476052e-05    6    6   18    2
 0.001850285057868181    6    6   18    6
 -0.001126846651545916    6    6   18   12
 -0.01246372510693833    6    6   18   14
 0.2086205556923652    6    6   18   18
 -0.0265481670562507    7    1    1    1
 -0.0282230562849989    7    1    2    2
 0.003988669375975327    7    1    3    1
 -0.0003065529090932566    7    1    3    3
 0.0003176897294902587    7    1    4    4
 0.0003176897294902587    7    1    5    5
 -0.001883069397055902    7    1    6    2
 9.07571596891359e-05    7    1    6    6
 0.001469850497180489    7    1    7    1
 -0.0001968874359245135    7    1    7    3
 -2.045906838542525e-06    7    1    7    7
 0.0001854350635010581    7    1    8    8
 0.0001854350635010579    7    1    9    9
 0.0001606225922564017    7    1   10    4
 -0.0002504012792667824    7    1   10   10
 0.0001606225922564017    7    1   11    5
 -0.0002504012792667824    7    1   11   11
 0.001965354080425488    7    1   12    2
 -2.114334489517936e-05    7    1   12    6
 -8.745732981058543e-05    7    1   12   12
 0.001968598959474202    7    1   13    1
 -0.0002815862025642224    7    1   13    3
 -0.0001001788439189538    7    1   13    7
 0.0001133418419809316    7    1   13   13
 -0.003099954824330829    7    1   14    2
 -0.0002535711704803543    7    1   14    6
 0.0002425232650837946    7    1   14   12
 -0.0003957808204512806    7    1   14   14
 0.003466837759327811    7    1   15    1
 -0.0009098617508359211    7    1   15    3
 -0.000134309119986205    7    1   15    7
 -0.0001825552388256675    7    1   15   13
 -0.003582026013197988    7    1   15   15
 -0.0001341959832503795    7    1   16    8
 -0.0009556308288544068    7    1   16   16
 -0.0001341959832503801    7    1   17    9
 -0.0009556308288544072    7    1   17   17
 0.0133708979617528    7    1   18    2
 0.001473685996347314    7    1   18    6
 -0.001570569887586116    7    1   18   12
 0.002346628704997905    7    1   18   14
 -0.01504802265521927    7    1   18   18
 -0.02451025678358426    7    2    2    1
 0.004020229105490949    7    2    3    2
 -0.001664364765428677    7    2    6    1
 0.0001703687693520704    7    2    6    3
 0.001442097107388128    7    2    7    2
 0.0001341830757472635    7    2    7    6
 8.554791378114938e-05    7    2    8    5
 8.554791378114938e-05    7    2    9    4
 -6.074418000173835e-06    7    2   10    9
 -6.074418000173837e-06    7    2   11    8
 0.00174257345751549    7    2   12    1
 -0.0002033477859271731    7    2   12    3
 -7.401498427380498e-05    7    2   12    7
 0.001778106637651632    7    2   13    2
 8.16368785395661e-05    7    2   13    6
 -9.28704882040923e-05    7    2   13   12
 -0.002714595833915336    7    2   14    1
 0.0004152836087892038    7    2   14    3
 0.0001639355740602683    7    2   14    7
 0.0001277331444091355    7    2   14   13
 0.005227487119184282    7    2   15    2
 0.0003501128885350304    7    2   15    6
 -0.0003871202881923979    7    2   15   12
 0.0002970635466795586    7    2   15   14
 0.0001344695064569055    7    2   16    5
 -0.0003929517225475402    7    2   16   11
 0.0001344695064569055    7    2   17    4
 -0.0003929517225475402    7    2   17   10
 0.01216042979304873    7    2   18    1
 -0.002933214410732936    7    2   18    3
 -0.001065851539069703    7    2   18    7
 -0.0008801058924010848    7    2   18   13
 -0.003349866608773016    7    2   18   15
 0.05060762486322132    7    3    1    1