 &FCI NORB=  28,NELEC=12,MS2=0,
  ORBSYM=1,1,1,1,1,1,1,1,1,1,1,1,1,1,1,1,1,1,1,1,1,1,1,1,1,1,1,1,
  ISYM=1,
 &END
 1.961548093652528    1    1    1    1
 1.962498531726849    1    1    2    2
 -0.1729154571275009    1    1    3    1
 0.6923068036431383    1    1    3    3
 -0.1542221700790543    1    1    4    2
 0.5545009540273556    1    1    4    4
 0.5750337212040412    1    1    5    5
 0.5750337212040406    1    1    6    6
 0.03477402344090218    1    1    7    1
 0.0914951023534742    1    1    7    3
 0.5581630747554279    1    1    7    7
 0.4936901916076281    1    1    8    8
 0.4936901916076298    1    1    9    9
 -0.0922567259137364    1    1   10    2
 0.1233750321196959    1    1   10    4
 0.3238543947650758    1    1   10   10
 -0.01226889707226589    1    1   11    1
 -0.06695369696679028    1    1   11    3
 -0.176775990730098    1    1   11    7
 0.4434884363560163    1    1   11   11
 0.1966718348671642    1    1   12    5
 0.4873120724447748    1    1   12   12
 0.196671834867164    1    1   13    6
 0.4873120724447746    1    1   13   13
 -0.1332930331253898    1    1   14    1
 0.1319458253528567    1    1   14    3
 -0.1003320806672785    1    1   14    7
 0.01646172647754778    1    1   14   11
 0.4879157877008342    1    1   14   14
 -0.2162351310106798    1    1   15    8
 0.5409011924126993    1    1   15   15
 -0.2162351310106796    1    1   16    9
 0.5409011924126976    1    1   16   16
 0.001550156077681669    1    1   17    2
 -0.07547357187669274    1    1   17    4
 0.03642947825131594    1    1   17   10
 0.6191636987064889    1    1   17   17
 0.4989090289583253    1    1   18   18
 0.4989090289583253    1    1   19   19
 0.1368960213168006    1    1   20    2
 -0.1260043728278474    1    1   20    4
 -0.1251536831386403    1    1   20   10
 -0.09742561206447832    1    1   20   17
 0.4991328570468987    1    1   20   20
 -0.01286975678326976    1    1   21    5
 -0.02403812577479822    1    1   21   12
 0.5368715411227847    1    1   21   21
 -0.01286975678326957    1    1   22    6
 -0.02403812577479811    1    1   22   13
 0.5368715411227846    1    1   22   22
 0.4887294252337422    1    1   23   23
 0.4887294252337424    1    1   24   24
 0.01552969995391524    1    1   25    1
 -0.001511498337339209    1    1   25    3
 0.01666101322489635    1    1   25    7
 -0.04835768600912312    1    1   25   11
 0.01770811464079272    1    1   25   14
 0.5178870950530023    1    1   25   25
 0.04547716854234825    1    1   26    8
 -0.09824137261416992    1    1   26   15
 0.5102643150147574    1    1   26   26
 0.04547716854234866    1    1   27    9
 -0.09824137261416985    1    1   27   16
 0.5102643150147579    1    1   27   27
 -0.05805731092820815    1    1   28    2
 -0.01965893196178331    1    1   28    4
 0.004257650541715134    1    1   28   10
 0.2116393913791156    1    1   28   17
 -0.1294373567148671    1    1   28   20
 0.7347037018981477    1    1   28   28
 1.545782174259053    2    1    2    1
 -0.1800289205018138    2    1    3    2
 -0.1480234667498573    2    1    4    1
 0.1659615237680261    2    1    4    3
 0.02103303253012164    2    1    7    2
 -0.1733134022114085    2    1    7    4
 0.1833077268501871    2    1    8    6
 0.1833077268501879    2    1    9    5
 -0.09154423512688457    2    1   10    1
 0.09238278592637741    2    1   10    3
 -0.001806864008555822    2    1   10    7
 -0.0004123612262038966    2    1   11    2
 0.05764480296953559    2    1   11    4
 0.06010382046668331    2    1   11   10
 0.1022965135960737    2    1   12    9
 0.102296513596073    2    1   13    8
 -0.1287306364832644    2    1   14    2
 0.1478610839752858    2    1   14    4
 0.08478039401330449    2    1   14   10
 -0.169992662057877    2    1   15    6
 -0.1964143788915352    2    1   15   13
 -0.1699926620578763    2    1   16    5
 -0.1964143788915347    2    1   16   12
 -0.01301319144914274    2    1   17    1
 0.07922662006659804    2    1   17    3
 0.1888435084887254    2    1   17    7
 -0.1257711266169282    2    1   17   11
 -0.1255300849293363    2    1   17   14
 0.1396390689753208    2    1   20    1
 -0.1502420523568127    2    1   20    3
 -0.03611248371619694    2    1   20    7
 0.01834730082231657    2    1   20   11
 -0.1109950048010182    2    1   20   14
 -0.1103404708815624    2    1   21    9
 0.08933436324685923    2    1   21   16
 -0.1103404708815619    2    1   22    8
 0.08933436324685946    2    1   22   15
 0.1391202579953694    2    1   23   19
 0.1391202579953695    2    1   24   18
 0.01538273416674946    2    1   25    2
 -0.01472396340952463    2    1   25    4
 -0.03882005941261573    2    1   25   10
 -0.1137712842626089    2    1   25   17
 0.07465871067665018    2    1   25   20
 0.04953433626465354    2    1   26    6
 0.07259684946370779    2    1   26   13
 0.1091691723833238    2    1   26   22
 0.04953433626465374    2    1   27    5
 0.07259684946370798    2    1   27   12
 0.1091691723833236    2    1   27   21
 -0.07583719561175886    2    1   28    1
 0.1183429707679223    2    1   28    3
 0.1282790956556525    2    1   28    7
 -0.1683529663734574    2    1   28   11
 -0.002963509623315028    2    1   28   14
 0.06046521632171819    2    1   28   25
 1.962498531726849    2    2    1    1
 1.96344993228612    2    2    2    2
 -0.1730816962792411    2    2    3    1
 0.6922621802369857    2    2    3    3
 -0.154345773088479    2    2    4    2
 0.5545609279038384    2    2    4    4
 0.5750314074818718    2    2    5    5
 0.5750314074818714    2    2    6    6
 0.03477466660686349    2    2    7    1
 0.09142855393829781    2    2    7    3
 0.5581723996701513    2    2    7    7
 0.4937119121268098    2    2    8    8
 0.4937119121268115    2    2    9    9
 -0.09233866132892293    2    2   10    2
 0.1233955301667955    2    2   10    4
 0.3238703702882328    2    2   10   10
 -0.01225262434365792    2    2   11    1
 -0.06691581369432585    2    2   11    3
 -0.1767712275218849    2    2   11    7
 0.4434836251986954    2    2   11   11
 0.1966841074976838    2    2   12    5
 0.487326462675825    2    2   12   12
 0.1966841074976838    2    2   13    6
 0.4873264626758248    2    2   13   13
 -0.1333986235152476    2    2   14    1
 0.1319636811252271    2    2   14    3
 -0.1003803069413286    2    2   14    7
 0.01650244453970175    2    2   14   11
 0.4879521438014883    2    2   14   14
 -0.2162644208873889    2    2   15    8
 0.5409453440041714    2    2   15   15
 -0.2162644208873888    2    2   16    9
 0.5409453440041695    2    2   16   16
 0.001514951657110146    2    2   17    2
 -0.07551742462926984    2    2   17    4
 0.03641185054359409    2    2   17   10
 0.6192023202694732    2    2   17   17
 0.498892240064405    2    2   18   18
 0.498892240064405    2    2   19   19
 0.1370224048934666    2    2   20    2
 -0.1260259449597692    2    2   20    4
 -0.125164364730079    2    2   20   10
 -0.09740797092774651    2    2   20   17
 0.4991413506253107    2    2   20   20
 -0.01292355084213635    2    2   21    5
 -0.02407422552703411    2    2   21   12
 0.5368634357783035    2    2   21   21
 -0.01292355084213619    2    2   22    6
 -0.02407422552703402    2    2   22   13
 0.5368634357783034    2    2   22   22
 0.4887286307538581    2    2   23   23
 0.4887286307538582    2    2   24   24
 0.01554242719672647    2    2   25    1
 -0.001556517827644552    2    2   25    3
 0.01661531152354915    2    2   25    7
 -0.04832820123851742    2    2   25   11
 0.0177065924293344    2    2   25   14
 0.5178768098188224    2    2   25   25
 0.04546325671641226    2    2   26    8
 -0.09823874469842259    2    2   26   15
 0.510268454564124    2    2   26   26
 0.04546325671641268    2    2   27    9
 -0.09823874469842263    2    2   27   16
 0.5102684545641242    2    2   27   27
 -0.05815642052624832    2    2   28    2
 -0.01966844554917173    2    2   28    4
 0.004248440276401943    2    2   28   10
 0.2116499605545945    2    2   28   17
 -0.1294173761328879    2    2   28   20
 0.7347231236220514    2    2   28   28
 -0.1729154571275011    3    1    1    1
 -0.1730816962792412    3    1    2    2
 0.03024199426862784    3    1    3    1
 0.0003618549411222816    3    1    3    3
 0.0225125937154256    3    1    4    2
 -0.009418076731559663    3    1    4    4
 -0.0008622053203903407    3    1    5    5
 -0.000862205320390341    3    1    6    6
 -3.483993736044754e-05    3    1    7    1
 0.006043776085054582    3    1    7    3
 -0.004249057373733487    3    1    7    7
 -0.003143515777373119    3    1    8    8
 -0.003143515777373155    3    1    9    9
 0.01501578296544235    3    1   10    2
 -0.003552169223516302    3    1   10    4
 -0.0026372009729882    3    1   10   10
 -0.003206551289922722    3    1   11    1
 -0.002661068629663253    3    1   11    3
 0.001984347620114678    3    1   11    7
 -0.001839969761027685    3    1   11   11
 -0.002735377820394414    3    1   12    5
 -0.003168234808407018    3    1   12   12
 -0.002735377820394416    3    1   13    6
 -0.003168234808407023    3    1   13   13
 0.01901829741491047    3    1   14    1
 -0.004268145044295501    3    1   14    3
 0.006627937238917307    3    1   14    7
 -0.005286605850788212    3    1   14   11
 -0.00657599644832161    3    1   14   14
 0.004549843388863556    3    1   15    8
 -0.0069863013725256    3    1   15   15
 0.00454984338886357    3    1   16    9
 -0.006986301372525559    3    1   16   16
 0.007109323813097405    3    1   17    2
 0.006639333629304759    3    1   17    4
 0.002232094146629523    3    1   17   10
 -0.008221784301926459    3    1   17   17
 0.001927982797131265    3    1   18   18
 0.001927982797131251    3    1   19   19
 -0.02326374096844738    3    1   20    2
 0.003851646789251308    3    1   20    4
 0.002224118525492932    3    1   20   10
 -0.001321762711588651    3    1   20   17
 -0.002646278158899916    3    1   20   20
 0.006177389236108358    3    1   21    5
 0.004442162319208028    3    1   21   12
 -0.0005135782486820857    3    1   21   21
 0.006177389236108352    3    1   22    6
 0.004442162319208024    3    1   22   13
 -0.0005135782486820751    3    1   22   22
 0.0003927263181556974    3    1   23   23
 0.0003927263181557307    3    1   24   24
 -0.003271865798770505    3    1   25    1
 0.003419043433571817    3    1   25    3
 0.005173885027465201    3    1   25    7
 -0.003201444209321352    3    1   25   11
 -0.0009476716538805656    3    1   25   14
 -0.0004445735028048604    3    1   25   25
 0.001355976107038466    3    1   26    8
 0.0002133552254438517    3    1   26   15
 -0.001085203864997641    3    1   26   26
 0.001355976107038462    3    1   27    9
 0.0002133552254438622    3    1   27   16
 -0.001085203864997641    3    1   27   27
 0.01898667870921402    3    1   28    2
 0.001039425986354194    3    1   28    4
 0.0004380290804694999    3    1   28   10
 -0.005152236347022788    3    1   28   17
 -0.0003553462949395062    3    1   28   20
 -0.008481182266007524    3    1   28   28
 -0.1800289205018139    3    2    2    1
 0.03006897521229204    3    2    3    2
 0.02270888490560748    3    2    4    1
 -0.008203711473118385    3    2    4    3
 -0.0004914510017292489    3    2    7    2
 0.009001636983464215    3    2    7    4
 -0.006065036769935842    3    2    8    6
 -0.006065036769935871    3    2    9    5
 0.0150384776718879    3    2   10    1
 -0.004218186318561432    3    2   10    3
 0.001544182602262542    3    2   10    7
 -0.002808810930187263    3    2   11    2
 -0.00381746422658856    3    2   11    4
 -0.002894126712085545    3    2   11   10
 -0.004429770750189886    3    2   12    9
 -0.004429770750189859    3    2   13    8
 0.0191965116519483    3    2   14    2
 -0.009410600088613849    3    2   14    4
 -0.00486042678673136    3    2   14   10
 0.00673689689989487    3    2   15    6
 0.008217263845002222    3    2   15   13
 0.006736896899894846    3    2   16    5
 0.008217263845002199    3    2   16   12
 0.006640553267128753    3    2   17    1
 -6.616494885008109e-05    3    2   17    3
 -0.008858240540542992    3    2   17    7
 0.006375751979870061    3    2   17   11
 0.007529355191647121    3    2   17   14
 -0.0231790461341202    3    2   20    1
 0.005516136440992404    3    2   20    3
 -0.0008464748515774184    3    2   20    7
 0.0006583693433050386    3    2   20   11
 0.005269563086988276    3    2   20   14
 0.005427045634463397    3    2   21    9
 -0.005459297111688257    3    2   21   16
 0.005427045634463369    3    2   22    8
 -0.005459297111688272    3    2   22   15
 -0.002890599595929088    3    2   23   19
 -0.002890599595929102    3    2   24   18
 -0.003305830456790824    3    2   25    2
 -0.001211966520661912    3    2   25    4
 0.0008690689785962707    3    2   25   10
 0.005814810298190407    3    2   25   17
 -0.002731399189011962    3    2   25   20
 -0.0002587042550944113    3    2   26    6
 -0.001846732725923249    3    2   26   13
 -0.002493710332555735    3    2   26   22
 -0.0002587042550944174    3    2   27    5
 -0.001846732725923256    3    2   27   12
 -0.00249371033255573    3    2   27   21
 0.01837997367856989    3    2   28    1
 -0.00328025609237054    3    2   28    3
 -0.004550912170247895    3    2   28    7
 0.006544184818119494    3    2   28   11
 0.001897262975923698    3    2   28   14
 0.0006460538241607541    3    2   28   25
 0.6923068036431386    3    3    1    1
 0.6922621802369858    3    3    2    2
 0.000361854941122271    3    3    3    1
 0.6383860799361505    3    3    3    3
 -0.01529678178868631    3    3    4    2
 0.4380632648618147    3    3    4    4
 0.5206991849653737    3    3    5    5
 0.5206991849653732    3    3    6    6
 0.02026960578755508    3    3    7    1
 0.1193918260355208    3    3    7    3
 0.4681125584618021    3    3    7    7
 0.4267244414250316    3    3    8    8
 0.4267244414250326    3    3    9    9
 -0.004741317783032222    3    3   10    2
 0.08151309516596587    3    3   10    4
 0.2890614811090254    3    3   10   10
 -0.01684936765108743    3    3   11    1
 -0.06190813548458505    3    3   11    3
 -0.1247445515726391    3    3   11    7
 0.394805207069726    3    3   11   11
 0.1290665814040206    3    3   12    5
 0.418660745760381    3    3   12   12
 0.1290665814040205    3    3   13    6
 0.4186607457603808    3    3   13   13
 -0.01295106986108622    3    3   14    1
 0.07180022415336597    3    3   14    3
 -0.03162255482930205    3    3   14    7
 -0.03715019156837595    3    3   14   11
 0.4079394814905091    3    3   14   14
 -0.1325602839774704    3    3   15    8
 0.4227476419414227    3    3   15   15
 -0.1325602839774701    3    3   16    9
 0.4227476419414217    3    3   16   16
 0.02145877385500447    3    3   17    2
 -0.004615274495867457    3    3   17    4
 0.05012350553913653    3    3   17   10
 0.4872447529718395    3    3   17   17
 0.4947044446856837    3    3   18   18
 0.4947044446856837    3    3   19   19
 0.001442340149104285    3    3   20    2
 -0.07396063630119988    3    3   20    4
 -0.08833955403290344    3    3   20   10
 -0.08181226230338448    3    3   20   17
 0.4343617111493157    3    3   20   20
 0.05553222264665937    3    3   21    5
 0.02059349775821886    3    3   21   12
 0.503564196341007    3    3   21   21
 0.05553222264665946    3    3   22    6
 0.02059349775821892    3    3   22   13
 0.5035641963410071    3    3   22   22
 0.4651587320721406    3    3   23   23
 0.4651587320721407    3    3   24   24
 -0.0004822563167328607    3    3   25    1
 0.03217536511193064    3    3   25    3
 0.05617946053536866    3    3   25    7
 -0.06357916685498093    3    3   25   11
 0.00879524946700647    3    3   25   14
 0.4758732641490478    3    3   25   25
 0.04665788609600701    3    3   26    8
 -0.07328406738662233    3    3   26   15
 0.4603517947517691    3    3   26   26
 0.04665788609600732    3    3   27    9
 -0.07328406738662237    3    3   27   16
 0.4603517947517696    3    3   27   27
 0.02381010631665613    3    3   28    2
 -0.008090353618909725    3    3   28    4
 0.0008782015890370323    3    3   28   10
 0.113513919839149    3    3   28   17
 -0.1018635916213746    3    3   28   20
 0.559133784491231    3    3   28   28
 -0.1480234667498572    4    1    2    1
 0.02270888490560746    4    1    3    2
 0.02287663428981371    4    1    4    1
 -0.002867205681346283    4    1    4    3
 -0.007956781652085606    4    1    7    2
 -0.003416364685358292    4    1    7    4
 -0.000916447905167136    4    1    8    6
 -0.0009164479051671496    4    1    9    5
 0.013140380545286    4    1   10    1
 -0.00346664664830409    4    1   10    3
 -0.0001037264490608664    4    1   10    7
 0.004946643462796554    4    1   11    2
 5.457385559488274e-05    4    1   11    4
 0.002252092034273509    4    1   11   10
 -0.003373661225088828    4    1   12    9
 -0.003373661225088813    4    1   13    8
 0.02000545156568491    4    1   14    2
 -0.001482310199115569    4    1   14    4
 -0.001043666734542171    4    1   14   10
 0.003567052933749848    4    1   15    6
 0.003839199153773275    4    1   15   13
 0.003567052933749846    4    1   16    5
 0.003839199153773259    4    1   16   12
 -0.004471649395790884    4    1   17    1
 -0.004892664485153241    4    1   17    3
 -0.001210270554652827    4    1   17    7
 0.003243789187512292    4    1   17   11
 -0.003050174037533896    4    1   17   14
 -0.01792241332013819    4    1   20    1
 0.006648466769506596    4    1   20    3
 0.001132304019888346    4    1   20    7
 -0.002152525832464285    4    1   20   11
 0.00263815197581663    4    1   20   14
 -0.001666329214655911    4    1   21    9
 -5.394978570374259e-05    4    1   21   16
 -0.001666329214655912    4    1   22    8
 -5.394978570373191e-05    4    1   22   15
 0.001655097382898107    4    1   23   19
 0.001655097382898095    4    1   24   18
 -0.0005213937407699053    4    1   25    2
 0.001389749850666091    4    1   25    4
 -0.000162186443048929    4    1   25   10
 -0.002202594633929731    4    1   25   17
 0.0004299593755350028    4    1   25   20
 -0.003917978543426784    4    1   26    6
 -0.003166552108497461    4    1   26   13
 0.003399693363051401    4    1   26   22
 -0.003917978543426789    4    1   27    5
 -0.003166552108497463    4    1   27   12
 0.003399693363051405    4    1   27   21
 0.002172779427898207    4    1   28    1
 -0.007998377132160724    4    1   28    3
 -0.007647839038089112    4    1   28    7
 0.006402905892322755    4    1   28   11
 -0.0004130385295029145    4    1   28   14
 0.003108244095917615    4    1   28   25
 -0.1542221700790544    4    2    1    1
 -0.154345773088479    4    2    2    2
 0.0225125937154256    4    2    3    1
 -0.01529678178868631    4    2    3    3
 0.0230710452751026    4    2    4    2
 -0.002815583865900011    4    2    4    4
 -0.006352126824492353    4    2    5    5
 -0.006352126824492346    4    2    6    6
 -0.008358840500612426    4    2    7    1
 -0.006649445746690292    4    2    7    3
 -0.0035628665885245    4    2    7    7
 -0.002981517403889857    4    2    8    8
 -0.002981517403889889    4    2    9    9
 0.01317769107568651    4    2   10    2
 -0.003216266144380892    4    2   10    4
 -0.001574448452674099    4    2   10   10
 0.005300071662541542    4    2   11    1
 0.004936911438784639    4    2   11    3
 0.005185754248808339    4    2   11    7
 -0.005098139672193582    4    2   11   11
 -0.005672797755420999    4    2   12    5
 -0.006694041292320194    4    2   12   12
 -0.005672797755420993    4    2   13    6
 -0.006694041292320193    4    2   13   13
 0.02013317641885695    4    2   14    1
 -0.004827228673948463    4    2   14    3
 -0.001401823684083706    4    2   14    7
 0.001522455118685085    4    2   14   11
 -0.003216287194041517    4    2   14   14
 0.004660539088234343    4    2   15    8
 -0.007083170003174736    4    2   15   15
 0.004660539088234355    4    2   16    9
 -0.007083170003174694    4    2   16   16
 -0.004864805060326461    4    2   17    2
 -0.002736595683566929    4    2   17    4
 -0.002352855568540319    4    2   17   10
 -0.005466325365159158    4    2   17   17
 -0.002671690962548488    4    2   18   18
 -0.00267169096254851    4    2   19   19
 -0.01787708307410504    4    2   20    2
 0.004960366153680102    4    2   20    4
 0.003753416478294493    4    2   20   10
 0.004411887526545515    4    2   20   17
 -0.007276420966613481    4    2   20   20
 -0.002289876525887441    4    2   21    5
 -7.618991931397085e-05    4    2   21   12
 -0.002302670661960752    4    2   21   21
 -0.002289876525887446    4    2   22    6
 -7.618991931397671e-05    4    2   22   13
 -0.002302670661960754    4    2   22   22
 -0.001404755323551999    4    2   23   23
 -0.001404755323551948    4    2   24   24
 -0.0005565870846278384    4    2   25    1
 -0.001355055452201888    4    2   25    3
 -0.003175897901210707    4    2   25    7
 0.001220667701819378    4    2   25   11
 0.0007906251117090468    4    2   25   14
 -0.00208455872112683    4    2   25   25
 -0.004755440473335293    4    2   26    8
 0.005236740950575986    4    2   26   15
 -0.002287551498165753    4    2   26   26
 -0.004755440473335316    4    2   27    9
 0.005236740950575973    4    2   27   16
 -0.002287551498165762    4    2   27   27
 0.001675120299503507    4    2   28    2
 -0.0002755747806404352    4    2   28    4
 -0.003116081755609071    4    2   28   10
 -0.01231105020302433    4    2   28   17
 0.008165514285065402    4    2   28   20
 -0.01823955390443023    4    2   28   28
 0.1659615237680262    4    3    2    1
 -0.008203711473118389    4    3    3    2
 -0.00286720568134629    4    3    4    1
 0.0650845171343933    4    3    4    3
 -0.0036129200986815    4    3    7    2
 -0.08442697165003424    4    3    7    4
 0.07750790095706325    4    3    8    6
 0.07750790095706346    4    3    9    5
 -0.002709394301583233    4    3   10    1
 0.02747077547704638    4    3   10    3
 0.008760405553565052    4    3   10    7
 0.003675517422632512    4    3   11    2
 0.01448455051754161    4    3   11    4
 0.04227875286326617    4    3   11   10
 0.01749775385621061    4    3   12    9
 0.01749775385621041    4    3   13    8
 -0.002467913489558156    4    3   14    2
 0.04220663939329009    4    3   14    4
 0.03152233316099614    4    3   14   10
 -0.04767461636801724    4    3   15    6
 -0.06544746367065128    4    3   15   13
 -0.0476746163680169    4    3   16    5
 -0.06544746367065118    4    3   16   12
 -0.005111740552393444    4    3   17    1
 0.02334110958296878    4    3   17    3
 0.05910569236133235    4    3   17    7
 -0.02843989362709593    4    3   17   11
 -0.05658927933177514    4    3   17   14
 0.005199376241818559    4    3   20    1
 -0.03730172926404174    4    3   20    3
 -0.01884870784620763    4    3   20    7
 0.002403791706479162    4    3   20   11
 -0.03905795236101787    4    3   20   14
 -0.05221668481390194    4    3   21    9
 0.02806603799490142    4    3   21   16
 -0.05221668481390176    4    3   22    8
 0.02806603799490157    4    3   22   15
 0.07937176325333577    4    3   23   19
 0.07937176325333586    4    3   24   18
 0.0003270951476013602    4    3   25    2
 -0.00554261912905635    4    3   25    4
 -0.01964567253856372    4    3   25   10
 -0.05504189832845907    4    3   25   17
 0.03402841844225835    4    3   25   20
 0.006935330695554639    4    3   26    6
 0.01921099541268354    4    3   26   13
 0.06919334160976648    4    3   26   22
 0.006935330695554711    4    3   27    5
 0.01921099541268362    4    3   27   12
 0.06919334160976645    4    3   27   21
 -0.008090082444766946    4    3   28    1
 0.02022475514220942    4    3   28    3
 0.01577899217362883    4    3   28    7
 -0.04345228319122271    4    3   28   11
 0.007171252540076153    4    3   28   14
 0.05001064478401548    4    3   28   25
 0.5545009540273557    4    4    1    1
 0.5545609279038385    4    4    2    2
 -0.009418076731559675    4    4    3    1
 0.4380632648618147    4    4    3    3
 -0.002815583865900024    4    4    4    2
 0.4447306822397039    4    4    4    4
 0.4137243446216075    4    4    5    5
 0.4137243446216072    4    4    6    6
 -0.0052318148681393    4    4    7    1
 0.004428681845119658    4    4    7    3
 0.4358292372121659    4    4    7    7
 0.3921875923877329    4    4    8    8
 0.3921875923877336    4    4    9    9
 -0.003161986961649131    4    4   10    2
 0.05223284752233549    4    4   10    4
 0.2968676970367177    4    4   10   10
 0.005149251682265666    4    4   11    1
 -0.009013208927462905    4    4   11    3
 -0.06324828574547742    4    4   11    7
 0.3428520565944674    4    4   11   11
 0.07487204708660641    4    4   12    5
 0.3484215305939318    4    4   12   12
 0.07487204708660639    4    4   13    6
 0.3484215305939316    4    4   13   13
 -0.001755486621113475    4    4   14    1
 0.05140274572701498    4    4   14    3
 -0.06674755620779094    4    4   14    7
 0.01636546568049197    4    4   14   11
 0.3818627839100318    4    4   14   14
 -0.09459450991303991    4    4   15    8
 0.3750898788588884    4    4   15   15
 -0.09459450991303957    4    4   16    9
 0.3750898788588878    4    4   16   16
 -0.008344236467964667    4    4   17    2
 -0.06195453250241396    4    4   17    4
 0.0130374239656804    4    4   17   10
 0.4473860277152723    4    4   17   17
 0.4041228840426333    4    4   18   18
 0.4041228840426331    4    4   19   19
 0.006762198261762362    4    4   20    2
 -0.03594628048683548    4    4   20    4
 -0.05818950099726713    4    4   20   10
 -0.03378915995069324    4    4   20   17
 0.3643277228306793    4    4   20   20
 -0.02652255153739744    4    4   21    5
 -0.00634668155398235    4    4   21   12
 0.4327011535864055    4    4   21   21
 -0.02652255153739735    4    4   22    6
 -0.006346681553982323    4    4   22   13
 0.4327011535864055    4    4   22   22
 0.4100634244757257    4    4   23   23
 0.4100634244757261    4    4   24   24
 0.002460317606880116    4    4   25    1
 -0.006874269888597827    4    4   25    3
 -0.01926562194813197    4    4   25    7
 -0.0318314320842217    4    4   25   11
 0.02232802074019881    4    4   25   14
 0.4226992317367976    4    4   25   25
 -0.01999457636077297    4    4   26    8
 -0.02423282384974888    4    4   26   15
 0.4254074927774743    4    4   26   26
 -0.0199945763607729    4    4   27    9
 -0.02423282384974899    4    4   27   16
 0.4254074927774745    4    4   27   27
 -0.01107571939385218    4    4   28    2
 0.003795836596594236    4    4   28    4
 -0.02342642340931091    4    4   28   10
 0.0277346525336436    4    4   28   17
 -0.02377931509241946    4    4   28   20
 0.4517553117524823    4    4   28   28
 0.009698820998023385    5    1    5    1
 0.01428631153772211    5    1    5    3
 -0.001292994934068079    5    1    7    5
 0.008775678603019976    5    1    9    2
 0.01094673954875824    5    1    9    4
 0.004949002974150222    5    1   10    9
 0.002262614939713402    5    1   11    5
 0.0113638284796328    5    1   12    1
 0.008158765502270387    5    1   12    3
 0.001475325821955419    5    1   12    7
 -0.001232365000073128    5    1   12   11
 0.003190114900349511    5    1   14    5
 0.007879511833714882    5    1   14   12
 -0.01346224559116516    5    1   16    2
 -0.008095476033511531    5    1   16    4
 -0.005935421388094722    5    1   16   10
 0.003563730106133083    5    1   17    9
 -0.0006101604249072376    5    1   17   16
 -0.008983221705986708    5    1   18    5
 -0.003151099734185402    5    1   18   12
 0.008983221705986703    5    1   19    6
 0.003151099734185406    5    1   19   13
 -0.005648743380744393    5    1   20    9
 0.01049152522184716    5    1   20   16
 -0.004933349372552013    5    1   21    1
 0.00252962990598324    5    1   21    3
 0.009171506781748317    5    1   21    7
 -0.002251103537823714    5    1   21   11
 -0.005059184766120058    5    1   21   14
 -5.377535062149976e-06    5    1   21   18
 5.377535062154065e-06    5    1   22   19
 0.007890365884399194    5    1   23    8
 -0.005049710451428133    5    1   23   15
 -0.00789036588439922    5    1   24    9
 0.005049710451428089    5    1   24   16
 -0.004970248927104319    5    1   25    5
 -0.003938926056435309    5    1   25   12
 0.003966013189118452    5    1   25   21
 0.001880124282115527    5    1   26   23
 0.005506488594880597    5    1   27    2
 -0.0006885502251878673    5    1   27    4
 0.002742758711138552    5    1   27   10
 0.008492278547525026    5    1   27   17
 -0.006075954831720503    5    1   27   20
 -0.001880124282115535    5    1   27   24
 -0.0004966361408649853    5    1   28    9
 -0.001365063374491421    5    1   28   16
 0.003531486278352319    5    1   28   27
 0.009202626726974578    5    2    5    2
 0.008641555948073891    5    2    5    4
 0.008410144576071202    5    2    9    1
 0.008101308009093035    5    2    9    3
 -0.003680790532729522    5    2    9    7
 0.00480271770018877    5    2   10    5
 0.001543504656344187    5    2   11    9
 0.01086322765105595    5    2   12    2
 0.004932325396642773    5    2   12    4
 0.003837653376290397    5    2   12   10
 0.004069825791213066    5    2   14    9
 -0.01294372609734409    5    2   16    1
 -0.007818210359646563    5    2   16    3
 0.001779595476624242    5    2   16    7
 -0.001538546428100646    5    2   16   11
 -0.006806842756256482    5    2   16   14
 0.003149438886732755    5    2   17    5
 0.00123773128727018    5    2   17   12
 -0.005433736538737485    5    2   18    9
 0.004107506080133379    5    2   18   16
 0.005433736538737468    5    2   19    8
 -0.004107506080133409    5    2   19   15
 -0.006920202939423752    5    2   20    5
 -0.007590302272811317    5    2   20   12
 -0.004873785707369273    5    2   21    2