 &FCI NORB=  18,NELEC= 8,MS2=0,
  ORBSYM=1,1,1,1,1,1,1,1,1,1,1,1,1,1,1,1,1,1,
  ISYM=1,
 &END
 1.377611325635281    1    1    1    1
 1.398780291016922    1    1    2    2
 -0.1358806227742915    1    1    3    1
 0.4981419763915119    1    1    3    3
 0.4715149379949207    1    1    4    4
 0.4192019558342658    1    1    5    5
 0.06746776757009726    1    1    6    2
 0.3199392239403115    1    1    6    6
 -0.04870403462778651    1    1    7    1
 0.1104507293164919    1    1    7    3
 0.3446318341112878    1    1    7    7
 0.2554303466151538    1    1    8    8
 0.2614805293152636    1    1    9    9
 -0.07330744820876961    1    1   10    2
 -0.1007893329614405    1    1   10    6
 0.2820486565377237    1    1   10   10
 -0.1413521717838752    1    1   11    4
 0.3374926079942706    1    1   11   11
 0.1557398347370724    1    1   12    5
 0.3898055901549257    1    1   12   12
 0.05795099589581518    1    1   13    1
 -0.1211553742006141    1    1   13    3
 -0.1703828871851944    1    1   13    7
 0.4793051384066306    1    1   13   13
 -0.06264471707445719    1    1   14    1
 0.07947962435206513    1    1   14    3
 -0.05808757874059827    1    1   14    7
 0.07332782699152732    1    1   14   13
 0.3773666904457776    1    1   14   14
 0.0798403892859849    1    1   15    2
 0.08993156450741747    1    1   15    6
 -0.08503643424324299    1    1   15   10
 0.3703210948912921    1    1   15   15
 -0.1035657040312319    1    1   16    9
 0.5205454818657844    1    1   16   16
 -0.09550842919163774    1    1   17    8
 0.5265956645658945    1    1   17   17
 -0.1681504707490877    1    1   18    2
 -0.05311945704265821    1    1   18    6
 0.03672514716047718    1    1   18   10
 -0.1552412344956915    1    1   18   15
 0.7145234531607529    1    1   18   18
 0.8682341700081722    2    1    2    1
 -0.1490734856881419    2    1    3    2
 0.05516320417697044    2    1    6    1
 -0.07365471974673926    2    1    6    3
 -0.07603122038080126    2    1    7    2
 0.03842043259456174    2    1    7    6
 0.04254922765666951    2    1    8    5
 0.0470648991514977    2    1    9    4
 -0.06154499134264128    2    1   10    1
 0.06409876550682975    2    1   10    3
 0.01171529311651925    2    1   10    7
 -0.004930448827929336    2    1   11    9
 0.009681835614395095    2    1   12    8
 0.108421092369668    2    1   13    2
 -0.01385383589361257    2    1   13    6
 0.02284418922039378    2    1   13   10
 -0.03443961584029243    2    1   14    2
 -0.05883013373787894    2    1   14    6
 0.05732500111623918    2    1   14   10
 0.05721931701016436    2    1   15    1
 -0.04798291029592829    2    1   15    3
 0.02133133133383952    2    1   15    7
 -0.04256435760480409    2    1   15   13
 -0.1022485345210482    2    1   15   14
 -0.1138880766718686    2    1   16    4
 0.0912425407432835    2    1   16   11
 -0.09767727457769204    2    1   17    5
 -0.109954920868161    2    1   17   12
 -0.1375869842645947    2    1   18    1
 0.05050095124131237    2    1   18    3
 -0.01498657586694674    2    1   18    7
 0.04223150081575865    2    1   18   13
 0.07488189322728106    2    1   18   14
 1.398780291016922    2    2    1    1
 1.422066061347165    2    2    2    2
 -0.1423026865365569    2    2    3    1
 0.4977681165604157    2    2    3    3
 0.4702113822140309    2    2    4    4
 0.4181603378001969    2    2    5    5
 0.06915303282053836    2    2    6    2
 0.3210096176297053    2    2    6    6
 -0.05309243952306091    2    2    7    1
 0.1090979769336464    2    2    7    3
 0.3440428762818027    2    2    7    7
 0.2555750643326954    2    2    8    8
 0.2616400846395415    2    2    9    9
 -0.07539416636229591    2    2   10    2
 -0.1013863394021772    2    2   10    6
 0.2828133227350823    2    2   10   10
 -0.140640341083334    2    2   11    4
 0.3368139770451232    2    2   11   11
 0.1549640880223631    2    2   12    5
 0.3888650214589575    2    2   12   12
 0.06501365937125124    2    2   13    1
 -0.119421464939824    2    2   13    3
 -0.1688520760584177    2    2   13    7
 0.4765741794040348    2    2   13   13
 -0.06213907259949222    2    2   14    1
 0.08071748113516519    2    2   14    3
 -0.05811107345014858    2    2   14    7
 0.07329917557479095    2    2   14   13
 0.3782916288357338    2    2   14   14
 0.08030228659724142    2    2   15    2
 0.09106700508686109    2    2   15    6
 -0.08604903760453837    2    2   15   10
 0.3719394992931345    2    2   15   15
 -0.1038240291004729    2    2   16    9
 0.5216258582849906    2    2   16   16
 -0.09573831808989899    2    2   17    8
 0.5276908785918368    2    2   17   17
 -0.1723757600665612    2    2   18    2
 -0.05502037626800119    2    2   18    6
 0.03879130906357589    2    2   18   10
 -0.1580786783870434    2    2   18   15
 0.7238333066562062    2    2   18   18
 -0.1358806227742915    3    1    1    1
 -0.1423026865365569    3    1    2    2
 0.02935970484725954    3    1    3    1
 -0.007859047666349301    3    1    3    3
 -0.001764554828660884    3    1    4    4
 -0.0009459823717547667    3    1    5    5
 -0.0119553744533528    3    1    6    2
 -0.003407844280753696    3    1    6    6
 0.01425858816895263    3    1    7    1
 -0.002668377013127775    3    1    7    3
 -0.003142164210026008    3    1    7    7
 -0.0004534744312982879    3    1    8    8
 -0.0005546025730887378    3    1    9    9
 0.01363736910104948    3    1   10    2
 0.002694881012504878    3    1   10    6
 -0.003179767649047597    3    1   10   10
 0.002444310772943743    3    1   11    4
 -0.002308095643229012    3    1   11   11
 -0.002204465184010339    3    1   12    5
 -0.003126668100135131    3    1   12   12
 -0.01959437082037889    3    1   13    1
 0.004404520336669489    3    1   13    3
 0.004210239756948348    3    1   13    7
 -0.007251551937102339    3    1   13   13
 0.00759182983693649    3    1   14    1
 -0.003220445540200837    3    1   14    3
 0.00130964421627976    3    1   14    7
 -0.003095910025229528    3    1   14   13
 -0.005120478777829038    3    1   14   14
 -0.01178186463132322    3    1   15    2
 -0.00413864105397275    3    1   15    6
 0.003963701287802193    3    1   15   10
 -0.007034829935440697    3    1   15   15
 0.001798119950298135    3    1   16    9
 -0.009295966795851212    3    1   16   16
 0.001529382402813858    3    1   17    8
 -0.009397094937641667    3    1   17   17
 0.03473466592857104    3    1   18    2
 0.00846768695277505    3    1   18    6
 -0.009344772269261158    3    1   18   10
 0.01276724547047347    3    1   18   15
 -0.04561313940543196    3    1   18   18
 -0.149073485688142    3    2    2    1
 0.03130373710310956    3    2    3    2
 -0.0121722824023054    3    2    6    1
 0.00600397881765457    3    2    6    3
 0.01528061724878716    3    2    7    2
 -0.0009106957320217867    3    2    7    6
 -0.002045863943183693    3    2    8    5
 -0.002429445481219467    3    2    9    4
 0.01380365704267285    3    2   10    1
 -0.005993917797828457    3    2   10    3
 -0.001494985830900636    3    2   10    7
 0.0008386555311895527    3    2   11    9
 -0.0009901880370503449    3    2   12    8
 -0.02111616254753381    3    2   13    2
 -5.200319384054982e-05    3    2   13    6
 6.211337189323571e-05    3    2   13   10
 0.007892238666558896    3    2   14    2
 0.004383450774276646    3    2   14    6
 -0.004254230431346392    3    2   14   10
 -0.01235010300784407    3    2   15    1
 0.005038913413764255    3    2   15    3
 -0.001147395699687937    3    2   15    7
 0.003188413006209225    3    2   15   13
 0.007852900920620538    3    2   15   14
 0.007957965613656675    3    2   16    4
 -0.007171988952511715    3    2   16   11
 0.006658879499852379    3    2   17    5
 0.008477351170797027    3    2   17   12
 0.03523225410394171    3    2   18    1
 -0.01285671403064174    3    2   18    3
 -0.001822162727491514    3    2   18    7
 -0.001423509388720868    3    2   18   13
 -0.009496366462978748    3    2   18   14
 0.4981419763915119    3    3    1    1
 0.4977681165604156    3    3    2    2
 -0.0078590476663493    3    3    3    1
 0.3762570205569814    3    3    3    3
 0.3769489088045369    3    3    4    4
 0.3501015757223864    3    3    5    5
 0.007320815690486064    3    3    6    2
 0.2743996559205933    3    3    6    6
 0.001665763872008114    3    3    7    1
 0.05727047404251064    3    3    7    3
 0.2800298338759285    3    3    7    7
 0.2417266136682574    3    3    8    8
 0.2455524306269999    3    3    9    9
 -0.007236920696546474    3    3   10    2
 -0.06508208335419231    3    3   10    6
 0.241463356128729    3    3   10   10
 -0.0697268946857811    3    3   11    4
 0.2761843884564605    3    3   11   11
 0.08274248720908774    3    3   12    5
 0.3030317215386112    3    3   12   12
 -0.004112054668675429    3    3   13    1
 -0.04439738613701339    3    3   13    3
 -0.08337749226147251    3    3   13    7
 0.3313289496512331    3    3   13   13
 -0.009151397922379258    3    3   14    1
 0.04041857829951086    3    3   14    3
 -0.03274006846820283    3    3   14    7
 0.02215368411218991    3    3   14   13
 0.2989888238953274    3    3   14   14
 0.01063250537478413    3    3   15    2
 0.04047556129759792    3    3   15    6
 -0.03940144261152845    3    3   15   10
 0.2855657545244888    3    3   15   15
 -0.06479185782947403    3    3   16    9
 0.3634614205405222    3    3   16   16
 -0.06109214149457888    3    3   17    8
 0.3672872374992648    3    3   17   17
 -0.0183980582144987    3    3   18    2
 -0.0004893328455154215    3    3   18    6
 -0.01703980561343208    3    3   18   10
 -0.05216063999910443    3    3   18   15
 0.3869391481812876    3    3   18   18
 0.009213087195215294    4    1    4    1
 0.01702281599786223    4    1    4    3
 0.006361117090957599    4    1    7    4
 0.002435264994816849    4    1    9    2
 -0.005441296310427899    4    1    9    6
 0.003883835869313054    4    1   10    9
 -0.008749987654895579    4    1   11    1
 -0.006701207613945195    4    1   11    3
 -0.005201659214644975    4    1   11    7
 -0.004691608804079737    4    1   13    4
 0.007451030497883095    4    1   13   11
 0.003090628851643201    4    1   14    4
 -0.00574912969898246    4    1   14   11
 0.0006544575919283965    4    1   15    9
 -0.01324443750000911    4    1   16    2
 0.006380384865359613    4    1   16    6
 -0.007971581706836782    4    1   16   10
 0.00627482503398156    4    1   16   15
 -0.001398787770058342    4    1   18    9
 0.0010490280228466    4    1   18   16
 0.006086848499530837    4    2    4    2
 -0.003734594236346868    4    2    6    4
 0.001883236708446272    4    2    9    1
 0.003059980157997948    4    2    9    3
 -0.000683186156344863    4    2    9    7
 0.003928748116551642    4    2   10    4
 -0.006002799856147047    4    2   11    2
 0.001243639749253256    4    2   11    6
 -0.001930748628577677    4    2   11   10
 0.0005335197685073829    4    2   13    9
 0.001339010041299895    4    2   14    9
 -0.002205435981751288    4    2   15    4
 0.002341124258588721    4    2   15   11
 -0.01046032563226138    4    2   16    1
 -0.006645865105779217    4    2   16    3
 -0.001230164604151348    4    2   16    7
 0.0001433970183972538    4    2   16   13
 -0.005026815295195354    4    2   16   14
 -0.0005752606758623554    4    2   18    4
 -0.0009139649796216185    4    2   18   11
 0.01702281599786223    4    3    4    1
 0.0822622798824206    4    3    4    3
 0.02340033441897722    4    3    7    4
 0.00438509331487504    4    3    9    2
 -0.03622416547408734    4    3    9    6
 0.0215044269235413    4    3   10    9
 -0.01442817186843526    4    3   11    1
 -0.01316217096426009    4    3   11    3
 -0.02074106863889991    4    3   11    7
 -0.003806345743484366    4    3   13    4
 0.03400510805970764    4    3   13   11
 0.003816956293109529    4    3   14    4
 -0.03786530120589091    4    3   14   11
 0.01671326221337129    4    3   15    9
 -0.02001052754023546    4    3   16    2
 0.02494343391072402    4    3   16    6
 -0.03424893100512477    4    3   16   10
 0.02621051589767971    4    3   16   15
 -0.01095007114923765    4    3   18    9
 0.02586962757711431    4    3   18   16
 0.4715149379949209    4    4    1    1
 0.470211382214031    4    4    2    2
 -0.001764554828660918    4    4    3    1
 0.376948908804537    4    4    3    3
 0.3997841645390721    4    4    4    4
 0.3352604597623631    4    4    5    5
 0.004508500771887439    4    4    6    2
 0.2717572955613634    4    4    6    6
 0.004151326491702217    4    4    7    1
 0.05836344873193897    4    4    7    3
 0.2766051417639229    4    4    7    7
 0.2342830100611285    4    4    8    8
 0.2540609339366665    4    4    9    9
 -0.003978666401381729    4    4   10    2
 -0.06644351900361101    4    4   10    6
 0.2401952986411974    4    4   10   10
 -0.07289775150094299    4    4   11    4
 0.2883588304041808    4    4   11   11
 0.07785336625366214    4    4   12    5
 0.2924068568665826    4    4   12   12
 -0.006907610443037442    4    4   13    1
 -0.04189236096593455    4    4   13    3
 -0.08220918151649778    4    4   13    7
 0.3287471650339925    4    4   13   13
 -0.006858450637185529    4    4   14    1
 0.03924341631321939    4    4   14    3
 -0.03170417355987318    4    4   14    7
 0.01920649152160186    4    4   14   13
 0.2985155412938921    4    4   14   14
 0.007585255934377029    4    4   15    2
 0.03863538454096932    4    4   15    6
 -0.0382861877064065    4    4   15   10
 0.2843922619120912    4    4   15   15
 -0.07000948704220888    4    4   16    9
 0.3787968133593534    4    4   16   16
 -0.05777543902627033    4    4   17    8
 0.3546861831755128    4    4   17   17
 -0.0088510479392037    4    4   18    2
 0.002323497183108517    4    4   18    6
 -0.02013299914577814    4    4   18   10
 -0.04951574893395699    4    4   18   15
 0.3801237230570413    4    4   18   18
 0.00619959127234461    5    1    5    1
 0.01308245627350284    5    1    5    3
 0.004471489794478064    5    1    7    5
 0.001666807274749615    5    1    8    2
 -0.004419855293876952    5    1    8    6
 0.00305781774443667    5    1   10    8
 0.008364034780661507    5    1   12    1
 0.007949626692716497    5    1   12    3
 0.005188429681245285    5    1   12    7
 -0.002726648048802932    5    1   13    5
 -0.006788106391299955    5    1   13   12
 0.00169414853958812    5    1   14    5
 0.005216084726263838    5    1   14   12
 0.0007349040126753747    5    1   15    8
 -0.01088040010343467    5    1   17    2
 0.005473380083690041    5    1   17    6
 -0.006767429769567727    5    1   17   10
 0.005231081177122527    5    1   17   15
 -0.001168153435236057    5    1   18    8
 0.001017378951885561    5    1   18   17
 0.004032792430257724    5    2    5    2
 -0.00290529955909686    5    2    6    5
 0.001276467335662274    5    2    8    1
 0.002400635931381973    5    2    8    3
 -0.0006164128528986912    5    2    8    7
 0.002957991940843898    5    2   10    5
 0.005662442955910603    5    2   12    2
 -0.001554367750533866    5    2   12    6
 0.002147790915246045    5    2   12   10
 0.0004573059186215414    5    2   13    8
 0.000983785398276916    5    2   14    8
 -0.001466292316159425    5    2   15    5
 -0.002254406017814765    5    2   15   12
 -0.008545188697197833    5    2   17    1
 -0.005616289787682515    5    2   17    3
 -0.0009983100192138519    5    2   17    7
 9.188619506404067e-05    5    2   17   13
 -0.004230182034975986    5    2   17   14
 -0.0006482348828163061    5    2   18    5
 0.0006231235809907748    5    2   18   12
 0.01308245627350284    5    3    5    1
 0.07574034397049861    5    3    5    3
 0.01767481443782525    5    3    7    5
 0.003489016653320976    5    3    8    2
 -0.03556907526444127    5    3    8    6
 0.019865264566667    5    3   10    8
 0.01567659094720656    5    3   12    1
 0.02387672352130871    5    3   12    3
 0.0232082059749429    5    3   12    7
 0.004071574919290998    5    3   13    5
 -0.03286877961134669    5    3   13   12
 -0.004457183457641512    5    3   14    5
 0.03804096205076934    5    3   14   12
 0.01883405749487719    5    3   15    8
 -0.01846183085895506    5    3   17    2
 0.02432063445896003    5    3   17    6
 -0.03330324989848338    5    3   17   10
 0.02482890093605564    5    3   17   15
 -0.009385343962606277    5    3   18    8
 0.02562731688310255    5    3   18   17
 0.0179602181886715    5    4    5    4
 0.008219439325570651    5    4    9    8
 -0.0007513525059535717    5    4   11    5
 0.005845220849303733    5    4   12    4
 -0.0109685009279694    5    4   12   11
 -0.003490360310254701    5    4   16    8
 -0.004136238886564506    5    4   17    9
 0.01303243423252147    5    4   17   16
 0.4192019558342659    5    5    1    1
 0.4181603378001969    5    5    2    2
 -0.0009459823717547643    5    5    3    1
 0.3501015757223865    5    5    3    3
 0.3352604597623631    5    5    4    4
 0.3490511192042585    5    5    5    5
 0.003328683080744181    5    5    6    2
 0.2599735817812761    5    5    6    6
 0.003422670479908185    5    5    7    1
 0.04885293472690008    5    5    7    3
 0.2622181293732356    5    5    7    7
 0.2446481241329822    5    5    8    8
 0.2304896055043789    5    5    9    9
 -0.002893371356739469    5    5   10    2
 -0.05909509275046097    5    5   10    6
 0.2304375286864587    5    5   10   10
 -0.05395090477916431    5    5   11    4
 0.2543789586318052    5    5   11   11
 0.07022417729096432    5    5   12    5
 0.2990099680907723    5    5   12   12
 -0.005454157478504289    5    5   13    1
 -0.03149307055027908    5    5   13    3
 -0.06896420091208467    5    5   13    7
 0.3055664427692338    5    5   13   13
 -0.005102447316541724    5    5   14    1
 0.03157559683275255    5    5   14    3
 -0.02764369585038699    5    5   14    7
 0.01303889425969331    5    5   14   13
 0.2837449119052705    5    5   14   14
 0.005695154345931906    5    5   15    2
 0.03107626502251635    5    5   15    6
 -0.03167485232014607    5    5   15   10
 0.2708477870749009    5    5   15   15
 -0.05314445092537004    5    5   16    9
 0.324169509909538    5    5   16   16
 -0.05685732808827459    5    5   17    8
 0.3522087387848976    5    5   17   17
 -0.006761097303334813    5    5   18    2
 0.003086267175264769    5    5   18    6
 -0.01969981041046026    5    5   18   10
 -0.04098449390585671    5    5   18   15
 0.3492647164454795    5    5   18   18
 0.05516320417696981    6    1    2    1
 -0.0121722824023051    6    1    3    2
 0.005756578358874868    6    1    6    1
 0.0005591198971763462    6    1    6    3
 -0.004574865094217623    6    1    7    2
 -0.002618410936005855    6    1    7    6
 -0.001116448831255967    6    1    8    5
 -0.001026225546038577    6    1    9    4
 -0.006333910749552884    6    1   10    1
 0.0004264757134334563    6    1   10    3
 0.0005261888682089738    6    1   10    7
 -0.0006357429314820092    6    1   11    9
 0.0004300980252630512    6    1   12    8
 0.005278473828954997    6    1   13    2
 0.001244742468153567    6    1   13    6
 -0.00212465722517365    6    1   13   10
 -0.005416509941072126    6    1   14    2
 0.001084334359915641    6    1   14    6
 -0.0009778997567029008    6    1   14   10
 0.007468618854278881    6    1   15    1
 -0.0002555211191637229    6    1   15    3
 -0.0008789435001514464    6    1   15    7
 0.0006870312852812478    6    1   15   13
 0.001522485860258931    6    1   15   14
 2.64799558182882e-05    6    1   16    4
 0.0006010498951645688    6    1   16   11
 0.0001643009913653485    6    1   17    5
 -0.0006006937579976712    6    1   17   12
 -0.0188141276905293    6    1   18    1
 0.005299033239055925    6    1   18    3
 0.002452676847288561    6    1   18    7
 -0.002192937878917455    6    1   18   13
 0.001129880796914898    6    1   18   14
 0.0674677675700968    6    2    1    1
 0.06915303282053781    6    2    2    2
 -0.01195537445335258    6    2    3    1
 0.007320815690486021    6    2    3    3
 0.004508500771887284    6    2    4    4
 0.003328683080744116    6    2    5    5
 0.006537224475104993    6    2    6    2
 -0.0001836880849066473    6    2    6    6
 -0.00364757592047593    6    2    7    1
 0.005164844872253938    6    2    7    3
 0.002682832299385652    6    2    7    7
 -3.20223712182233e-05    6    2    8    8
 1.982684475018337e-05    6    2    9    9
 -0.007126350250003146    6    2   10    2
 -0.0008616001975673752    6    2   10    6
 0.0007501983919238446    6    2   10   10
 -0.00334502381356818    6    2   11    4
 0.0032702706668138    6    2   11   11
 0.003355309272284089    6    2   12    5
 0.004450088357956973    6    2   12   12
 0.003383995915308591    6    2   13    1
 -0.00645675500258828    6    2   13    3
 -0.005160668718958113    6    2   13    7
 0.008740785913856155    6    2   13   13
 -0.006683760314040522    6    2   14    1
 7.739399847780647e-05    6    2   14    3
 3.915022619233293e-05    6    2   14    7
 0.0007492274621073168    6    2   14   13
 0.001003611670492105    6    2   14   14
 0.008689112394699879    6    2   15    2
 0.0003114705242658728    6    2   15    6
 -0.0006412740896056875    6    2   15   10
 0.001205864400420691    6    2   15   15
 -0.000934974347229066    6    2   16    9
 0.005361286930864302    6    2   16   16
 -0.000771063013759785    6    2   17    8
 0.00541313614683271    6    2   17   17
 -0.02101152763572552    6    2   18    2
 -0.002482220184633705    6    2   18    6
 0.002931414710475365    6    2   18   10
 -0.003537258075939798    6    2   18   15
 0.01747970208933045    6    2   18   18
 -0.07365471974673873    6    3    2    1
 0.006003978817654369    6    3    3    2
 0.0005591198971763247    6    3    6    1
 0.04361683204473853    6    3    6    3
 0.006868877337806394    6    3    7    2
 -0.049655005867179    6    3    7    6
 -0.03377631802402929    6    3    8    5
 -0.03280173855999707    6    3    9    4
 -0.0001448166305634593    6    3   10    1
 -0.02506638856473705    6    3   10    3
 -0.01344357191209497    6    3   10    7
 -0.01453456811094305    6    3   11    9
 0.00973156136017401    6    3   12    8
 -0.01159320351207826    6    3   13    2
 0.006518640784293367    6    3   13    6
 -0.03038551999120658    6    3   13   10
 -0.00447904831408346    6    3   14    2
 0.02356889035104938    6    3   14    6
 -0.02794083818045965    6    3   14   10
 0.002985319801859922    6    3   15    1
 0.01208260177193767    6    3   15    3
 -0.007524728368224216    6    3   15    7
 0.01178272946489113    6    3   15   13
 0.0503144374047325    6    3   15   14
 0.03982016107146145    6    3   16    4
 -0.03007463075536784    6    3   16   11
 0.03504364247161678    6    3   17    5
 0.03624550375030253    6    3   17   12
 -0.002489021964110606    6    3   18    1
 0.007271792489853496    6    3   18    3
 0.01231894856400195    6    3   18    7
 -0.01242978650830477    6    3   18   13
 -0.01051595987994331    6    3   18   14
 -0.003734594236346874    6    4    4    2
 0.0147025963441374    6    4    6    4
 -0.001408514518739172    6    4    9    1
 -0.0141792892644818    6    4    9    3
 0.009933979754815957    6    4    9    7
 -0.01217162631874461    6    4   10    4
 0.003155301044579297    6    4   11    2
 0.002089027552074436    6    4   11    6
 0.00288927083557653    6    4   11   10
 -0.003789132512082961    6    4   13    9
 0.000240634120616189    6    4   14    9
 0.002147687507895377    6    4   15    4
 -0.01099724255906562    6    4   15   11
 0.005928422079368813    6    4   16    1
 0.01488668263072263    6    4   16    3
 0.001564824675370323    6    4   16    7
 0.004284975940516565    6    4   16   13
 0.01441670698739642    6    4   16   14
 0.007526103405094381    6    4   18    4
 -0.002259419232011427    6    4   18   11
 -0.002905299559096862    6    5    5    2
 0.01514250917752501    6    5    6    5
 -0.001146804975132451    6    5    8    1
 -0.01420845585737556    6    5    8    3
 0.0110803323218811    6    5    8    7
 -0.01129853101629511    6    5   10    5
 -0.003466029045859905    6    5   12    2
 -0.0004092927685692058    6    5   12    6
 -0.004698015749069541    6    5   12   10
 -0.003579904391421628    6    5   13    8
 0.001732882200548123    6    5   14    8
 -0.0007198632166915113    6    5   15    5
 0.01175738357530659    6    5   15   12
 0.005515078549666766    6    5   17    1
 0.014542617445075    6    5   17    3
 0.001585255319845753    6    5   17    7
 0.004553310905380407    6    5   17   13
 0.01418415705939573    6    5   17   14
 0.006848395672219636    6    5   18    5
 0.003853699957999367    6    5   18   12
 0.3199392239403144    6    6    1    1
 0.3210096176297004    6    6    2    2
 -0.003407844280754348    6    6    3    1
 0.2743996559205926    6    6    3    3
 0.2717572955613612    6    6    4    4
 0.2599735817812739    6    6    5    5
 -0.0001836880849056633    6    6    6    2
 0.2706561074635891    6    6    6    6
 -0.003071706890553561    6    6    7    1
 0.0007806235313773585    6    6    7    3
 0.2611761262758291    6    6    7    7
 0.2268294949745246    6    6    8    8
 0.2289932820702137    6    6    9    9
 -0.000184968264376526    6    6   10    2
 -0.02958917660656949    6    6   10    6
 0.233861420030997    6    6   10   10
 -0.0298987440862421    6    6   11    4
 0.2195171663990912    6    6   11   11
 0.03702244882995413    6    6   12    5
 0.2313008801791787    6    6   12   12
 0.005344689895122929    6    6   13    1
 -0.00923914441581602    6    6   13    3
 -0.03024914736150464    6    6   13    7
 0.2516393042432062    6    6   13   13
 0.001744007832505378    6    6   14    1
 0.03380796581556532    6    6   14    3
 -0.02558220259764032    6    6   14    7
 0.02829333756337998    6    6   14   13
 0.2582367507672542    6    6   14   14
 -0.001881344989130669    6    6   15    2
 0.03386829861233335    6    6   15    6
 -0.02926848744265729    6    6   15   10
 0.2538653421915449    6    6   15   15
 -0.03636908467836689    6    6   16    9
 0.2775443008401254    6    6   16   16
 -0.03482778026015804    6    6   17    8
 0.2797080879358145    6    6   17   17
 0.0026049662577514    6    6   18    2
 -0.005946522972025636    6    6   18    6
 -0.006586189036754311    6    6   18   10
 -0.03432106504341254    6    6   18   15
 0.2930805957867462    6    6   18   18
 -0.04870403462778666    7    1    1    1
 -0.05309243952306106    7    1    2    2
 0.01425858816895267    7    1    3    1
 0.001665763872008098    7    1    3    3
 0.004151326491702266    7    1    4    4
 0.003422670479908238    7    1    5    5
 -0.003647575920476062    7    1    6    2
 -0.003071706890554044    7    1    6    6
 0.009753758220386521    7    1    7    1
 0.003711636642323426    7    1    7    3
 0.0007149911464775629    7    1    7    7
 -0.0002726975813800427    7    1    8    8
 -0.0002969456326138285    7    1    9    9
 0.004589908318583263    7    1   10    2
 0.001364198690424364    7    1   10    6
 -0.001978460805747104    7    1   10   10
 -0.0019477425524794    7    1   11    4
 0.002044664401904437    7    1   11   11
 0.002190386601439379    7    1   12    5
 0.002773320413698466    7    1   12   12
 -0.01556526789656227    7    1   13    1
 -0.003827446582939338    7    1   13    3
 -0.002711196070784288    7    1   13    7
 0.004537674557267449    7    1   13   13
 -0.001069964413175839    7    1   14    1
 -0.002885904157569663    7    1   14    3
 0.0009889946371541623    7    1   14    7
 -0.001622475488547601    7    1   14   13
 -0.003150422732754329    7    1   14   14
 -0.0006492411595854803    7    1   15    2
 -0.003360492064204804    7    1   15    6
 0.002843173845698878    7    1   15   10
 -0.004811733562792425    7    1   15   15
 0.0004230092902337817    7    1   16    9
 -0.001857510961993956    7    1   16   16
 0.0003748442657624301    7    1   17    8
 -0.001881759013227742    7    1   17   17
 0.008240909081391041    7    1   18    2
 0.005096812688448842    7    1   18    6
 -0.005460039140286249    7    1   18   10
 0.007813722999925889    7    1   18   15
 -0.0226139298786708    7    1   18   18
 -0.07603122038080135    7    2    2    1
 0.01528061724878716    7    2    3    2
 -0.004574865094217819    7    2    6    1
 0.006868877337806572    7    2    6    3
 0.009290428435634041    7    2    7    2
 -0.004601124801690676    7    2    7    6
 -0.00357551490623696    7    2    8    5
 -0.00382802083876716    7    2    9    4
 0.005455424416749365    7    2   10    1
 -0.005459396248834118    7    2   10    3
 -0.000731149416145276    7    2   10    7
 -6.011568039415373e-05    7    2   11    9
 -0.0003750515898822312    7    2   12    8
 -0.01421831914656915    7    2   13    2
 0.001678323477313658    7    2   13    6
 -0.002799310823791121    7    2   13   10
 0.0007067223800074851    7    2   14    2
 0.005959954370319163    7    2   14    6
 -0.005600057313392657    7    2   14   10
 -0.002455979619772369    7    2   15    1
 0.004744272927247231    7    2   15    3
 -0.002382406154435442    7    2   15    7
 0.004143715061456203    7    2   15   13
 0.01001411072184278    7    2   15   14
 0.007896384260912008    7    2   16    4
 -0.006274129451231028    7    2   16   11
 0.006800466422651716    7    2   17    5
 0.007563308012929204    7    2   17   12
 0.0104698907227702    7    2   18    1
 -0.005909961256489419    7    2   18    3
 0.001414193885179469    7    2   18    7
 -0.004269403743233885    7    2   18   13
 -0.008015934965622367    7    2   18   14
 0.110450729316492    7    3    1    1
 0.1090979769336465    7    3    2    2
 -0.002668377013127816    7    3    3    1
 0.05727047404251066    7    3    3    3
 0.05836344873193897    7    3    4    4
 0.04885293472690008    7    3    5    5