 &FCI NORB=  28,NELEC=18,MS2=0,
  ORBSYM=1,1,1,1,1,1,1,1,1,1,1,1,1,1,1,1,1,1,1,1,1,1,1,1,1,1,1,1,
  ISYM=1,
 &END
 2.865941334702902    1    1    1    1
 2.865963041874519    1    1    2    2
 -0.2601259285969471    1    1    3    1
 0.834616426475123    1    1    3    3
 -0.2791217692968666    1    1    4    2
 0.8374517202186591    1    1    4    4
 0.7934340256906897    1    1    5    5
 0.7934340256906892    1    1    6    6
 0.062327042929279    1    1    7    1
 0.02317555144247752    1    1    7    3
 0.7990886933477155    1    1    7    7
 0.831896431989023    1    1    8    8
 0.8318964319890223    1    1    9    9
 -0.07676348997573686    1    1   10    2
 0.08232721238720508    1    1   10    4
 0.850003249673696    1    1   10   10
 0.2960188984833271    1    1   11    5
 0.7223240305817828    1    1   11   11
 0.2960188984833269    1    1   12    6
 0.7223240305817822    1    1   12   12
 -0.09108951997262674    1    1   13    2
 0.1424367273934006    1    1   13    4
 -0.2819004443791109    1    1   13   10
 0.6711374728079841    1    1   13   13
 -0.3007486874765749    1    1   14    8
 0.6658305174310144    1    1   14   14
 -0.3007486874765751    1    1   15    9
 0.6658305174310145    1    1   15   15
 0.1467124334566982    1    1   16    1
 -0.119806301482171    1    1   16    3
 0.26892679190625    1    1   16    7
 0.6738795836627184    1    1   16   16
 -0.203180274512799    1    1   17    1
 0.2321912841877913    1    1   17    3
 0.1235016534655722    1    1   17    7
 0.03535391403949778    1    1   17   16
 0.7926792419306636    1    1   17   17
 0.2039728487014545    1    1   18    2
 -0.2124422160342662    1    1   18    4
 -0.1250312659669342    1    1   18   10
 -0.01830411865181103    1    1   18   13
 0.6715493960016641    1    1   18   18
 0.01431089794693461    1    1   19    1
 0.003068128211470909    1    1   19    3
 -0.002564118204575595    1    1   19    7
 -0.01454559208979149    1    1   19   16
 -0.03763106950281287    1    1   19   17
 0.7408464444215305    1    1   19   19
 0.04141944307752731    1    1   20    5
 -0.009996641532725045    1    1   20   11
 0.7296752447510605    1    1   20   20
 0.0414194430775273    1    1   21    6
 -0.009996641532725064    1    1   21   12
 0.7296752447510605    1    1   21   21
 0.7240950874119473    1    1   22   22
 0.7240950874119468    1    1   23   23
 0.7246004950927382    1    1   24   24
 0.7246004950927384    1    1   25   25
 -0.005232252522245874    1    1   26    8
 -0.01190910064778791    1    1   26   14
 0.7381235212918906    1    1   26   26
 -0.005232252522245853    1    1   27    9
 -0.01190910064778789    1    1   27   15
 0.7381235212918906    1    1   27   27
 0.04677907866388465    1    1   28    2
 -0.04309550562683995    1    1   28    4
 -0.01686981340596665    1    1   28   10
 -0.04791061866044426    1    1   28   13
 -0.03385758274337339    1    1   28   18
 0.7441846299491128    1    1   28   28
 2.49113235502984    2    1    2    1
 -0.2614484846378619    2    1    3    2
 -0.2780823536011024    2    1    4    1
 0.4391143681519118    2    1    4    3
 0.05484201072346507    2    1    7    2
 -0.1921139328701375    2    1    7    4
 0.4527481793639428    2    1    8    6
 0.4527481793639428    2    1    9    5
 -0.08455170731213456    2    1   10    1
 0.1479774169019897    2    1   10    3
 0.3990846411620523    2    1   10    7
 0.3132482513128968    2    1   11    9
 0.3132482513128968    2    1   12    8
 -0.08401392993880427    2    1   13    1
 0.04880393011620448    2    1   13    3
 -0.2683911173863245    2    1   13    7
 -0.2455657635580511    2    1   14    6
 -0.3580742279023157    2    1   14   12
 -0.2455657635580513    2    1   15    5
 -0.358074227902316    2    1   15   11
 0.140423509559417    2    1   16    2
 -0.1828077508962379    2    1   16    4
 0.1620206904535599    2    1   16   10
 -0.3827584316740652    2    1   16   13
 -0.2084666101725148    2    1   17    2
 0.1991463334306686    2    1   17    4
 0.270380761716846    2    1   17   10
 -0.1110486739387203    2    1   17   13
 0.205658548829931    2    1   18    1
 -0.199720559738151    2    1   18    3
 0.004807931152463525    2    1   18    7
 0.1154283967474495    2    1   18   16
 -0.2890619492706414    2    1   18   17
 0.01500881802945716    2    1   19    2
 -0.02399400234402806    2    1   19    4
 -0.1317848830134162    2    1   19   10
 0.02946676764756393    2    1   19   13
 -0.0864843881531885    2    1   19   18
 -0.0324113330936198    2    1   20    9
 -0.0487247471228402    2    1   20   15
 -0.0324113330936198    2    1   21    8
 -0.04872474712284025    2    1   21   14
 0.3650715197766649    2    1   24   23
 0.365071519776665    2    1   25   22
 -0.02663813534138514    2    1   26    6
 -0.05442269287564022    2    1   26   12
 0.3508866195563962    2    1   26   21
 -0.02663813534138515    2    1   27    5
 -0.05442269287564024    2    1   27   11
 0.3508866195563962    2    1   27   20
 0.04635317568137463    2    1   28    1
 -0.0351544415032474    2    1   28    3
 0.006331180067065031    2    1   28    7
 0.03757094782132623    2    1   28   16
 -0.05426417662438258    2    1   28   17
 0.3352638321228908    2    1   28   19
 2.865963041874521    2    2    1    1
 2.865984760099757    2    2    2    2
 -0.2601322757329725    2    2    3    1
 0.834609515482084    2    2    3    3
 -0.2791244222706802    2    2    4    2
 0.8374553944913927    2    2    4    4
 0.7934321856170476    2    2    5    5
 0.7934321856170471    2    2    6    6
 0.06231444135801458    2    2    7    1
 0.02316029262391569    2    2    7    3
 0.7990902682790932    2    2    7    7
 0.8318961522676189    2    2    8    8
 0.8318961522676184    2    2    9    9
 -0.07677987585442497    2    2   10    2
 0.08231297867869412    2    2   10    4
 0.8499952563813478    2    2   10   10
 0.2960203784432143    2    2   11    5
 0.7223234941057997    2    2   11   11
 0.296020378443214    2    2   12    6
 0.7223234941057992    2    2   12   12
 -0.09107558963903729    2    2   13    2
 0.1424458962815704    2    2   13    4
 -0.2818990520631862    2    2   13   10
 0.6711436644369999    2    2   13   13
 -0.3007482762133865    2    2   14    8
 0.6658299703410206    2    2   14   14
 -0.3007482762133865    2    2   15    9
 0.6658299703410208    2    2   15   15
 0.1467011899793768    2    2   16    1
 -0.1198128441998473    2    2   16    3
 0.2689315290103949    2    2   16    7
 0.6738883410552996    2    2   16   16
 -0.2031948932027526    2    2   17    1
 0.232185803036863    2    2   17    3
 0.1234954396394231    2    2   17    7
 0.03534990682517742    2    2   17   16
 0.7926651381183882    2    2   17   17
 0.2039795790540359    2    2   18    2
 -0.2124428874037384    2    2   18    4
 -0.1250202689576346    2    2   18   10
 -0.01831262885200948    2    2   18   13
 0.67154442129769    2    2   18   18
 0.01431388353781527    2    2   19    1
 0.003066176544135069    2    2   19    3
 -0.002576306101295475    2    2   19    7
 -0.0145511715786545    2    2   19   16
 -0.03763365960859751    2    2   19   17
 0.7408453478767494    2    2   19   19
 0.04140848149449083    2    2   20    5
 -0.01000240155680864    2    2   20   11
 0.729672405619505    2    2   20   20
 0.04140848149449081    2    2   21    6
 -0.01000240155680866    2    2   21   12
 0.729672405619505    2    2   21   21
 0.7240936528285382    2    2   22   22
 0.7240936528285378    2    2   23   23
 0.7245991281534723    2    2   24   24
 0.7245991281534724    2    2   25   25
 -0.005243500307382011    2    2   26    8
 -0.01190318075746075    2    2   26   14
 0.7381217079401258    2    2   26   26
 -0.005243500307381987    2    2   27    9
 -0.01190318075746071    2    2   27   15
 0.7381217079401257    2    2   27   27
 0.04678049862093382    2    2   28    2
 -0.04309557482580404    2    2   28    4
 -0.01688116127875999    2    2   28   10
 -0.04790454601201285    2    2   28   13
 -0.03385589340041929    2    2   28   18
 0.7441818640421534    2    2   28   28
 -0.2601259285969471    3    1    1    1
 -0.2601322757329723    3    1    2    2
 0.04152690884274732    3    1    3    1
 -0.00911763922278541    3    1    3    3
 0.04359664252613118    3    1    4    2
 -0.01302973506923487    3    1    4    4
 -0.006955023792717517    3    1    5    5
 -0.006955023792717515    3    1    6    6
 -0.006502807410476773    3    1    7    1
 0.004737994338502988    3    1    7    3
 -0.007825672740393424    3    1    7    7
 -0.008588152272309465    3    1    8    8
 -0.008588152272309453    3    1    9    9
 0.0159646392460568    3    1   10    2
 0.0007123211691184149    3    1   10    4
 -0.007813694497825022    3    1   10   10
 -0.008929234366123024    3    1   11    5
 -0.009953598759012344    3    1   11   11
 -0.008929234366123018    3    1   12    6
 -0.009953598759012333    3    1   12   12
 0.0108454930931525    3    1   13    2
 -0.00698561423040875    3    1   13    4
 0.007100240401663142    3    1   13   10
 -0.01136715584681792    3    1   13   13
 0.008718435919979154    3    1   14    8
 -0.008942073553718182    3    1   14   14
 0.008718435919979152    3    1   15    9
 -0.008942073553718189    3    1   15   15
 -0.02001401064406728    3    1   16    1
 0.006303257439307637    3    1   16    3
 -0.009145596652175078    3    1   16    7
 -0.01206555355691951    3    1   16   16
 0.03508432403170295    3    1   17    1
 -0.008224793461737883    3    1   17    3
 -0.002379098880849193    3    1   17    7
 0.0001074611502159597    3    1   17   16
 -0.008628077192134917    3    1   17   17
 -0.03312868554488185    3    1   18    2
 0.008995198203270006    3    1   18    4
 0.002176274296098235    3    1   18   10
 0.002830936267057231    3    1   18   13
 -0.006438196716296278    3    1   18   18
 -0.002915095764861049    3    1   19    1
 0.001123091778344195    3    1   19    3
 0.004107018571771495    3    1   19    7
 0.002376915163630106    3    1   19   16
 0.00216836822569773    3    1   19   17
 -0.001337026251505898    3    1   19   19
 0.002175254521718207    3    1   20    5
 0.0009899549143178037    3    1   20   11
 -0.0006175181484619621    3    1   20   20
 0.002175254521718207    3    1   21    6
 0.0009899549143178028    3    1   21   12
 -0.0006175181484619622    3    1   21   21
 -0.0008394428133512511    3    1   22   22
 -0.0008394428133512648    3    1   23   23
 -0.000861562764111971    3    1   24   24
 -0.0008615627641119569    3    1   25   25
 0.003329882737080304    3    1   26    8
 -0.002034585203015305    3    1   26   14
 -0.0009768969049866543    3    1   26   26
 0.003329882737080302    3    1   27    9
 -0.002034585203015306    3    1   27   15
 -0.0009768969049866543    3    1   27   27
 -0.007456854721413574    3    1   28    2
 0.00186731509283368    3    1   28    4
 0.003750828041107119    3    1   28   10
 -0.0012594471189927    3    1   28   13
 -0.001763312313308446    3    1   28   18
 -0.001272100004516204    3    1   28   28
 -0.2614484846378617    3    2    2    1
 0.04151815803357205    3    2    3    2
 0.04360614911455379    3    2    4    1
 -0.01200086264443913    3    2    4    3
 -0.006556926192526078    3    2    7    2
 0.00679293262359227    3    2    7    4
 -0.008876907531986408    3    2    8    6
 -0.008876907531986403    3    2    9    5
 0.01590194337261628    3    2   10    1
 -0.001754075895991838    3    2   10    3
 -0.007502574609374787    3    2   10    7
 -0.009868681282653382    3    2   11    9
 -0.009868681282653382    3    2   12    8
 0.01090341896235238    3    2   13    1
 -0.004226530469986581    3    2   13    3
 0.009462655029486323    3    2   13    7
 0.008247545375364547    3    2   14    6
 0.01027909170572592    3    2   14   12
 0.008247545375364552    3    2   15    5
 0.01027909170572593    3    2   15   11
 -0.02005986652387835    3    2   16    2
 0.00912156834249552    3    2   16    4
 -0.006121083826051871    3    2   16   10
 0.01211898705144374    3    2   16   13
 0.03504671843906217    3    2   17    2
 -0.007673350211372763    3    2   17    4
 -0.007135465936083346    3    2   17   10
 0.002340392430676887    3    2   17   13
 -0.03311565702329101    3    2   18    1
 0.00840419649043885    3    2   18    3
 -0.002226275465294351    3    2   18    7
 -0.004730154195766009    3    2   18   16
 0.007430867522611163    3    2   18   17
 -0.002913541095194846    3    2   19    2
 -0.0003018286815063405    3    2   19    4
 0.004175513077692512    3    2   19   10
 -0.002839015628495433    3    2   19   13
 -0.0002768093492555037    3    2   19   18
 0.001942138616807496    3    2   20    9
 -0.0006361021319215993    3    2   20   15
 0.001942138616807497    3    2   21    8
 -0.0006361021319215979    3    2   21   14
 -0.001992810297604957    3    2   24   23
 -0.001992810297604896    3    2   25   22
 0.002834223132971236    3    2   26    6
 0.002342859425302199    3    2   26   12
 -0.002040641282960489    3    2   26   21
 0.002834223132971236    3    2   27    5
 0.002342859425302199    3    2   27   11
 -0.002040641282960489    3    2   27   20
 -0.00746232180264146    3    2   28    1
 0.002407871951401983    3    2   28    3
 0.0020241069271401    3    2   28    7
 0.0002159226119207004    3    2   28   16
 0.002812852084795711    3    2   28   17
 -0.002523423602203963    3    2   28   19
 0.8346164264751228    3    3    1    1
 0.834609515482084    3    3    2    2
 -0.009117639222785417    3    3    3    1
 0.6803122987973297    3    3    3    3
 -0.01322284052566302    3    3    4    2
 0.631344644868718    3    3    4    4
 0.6278838594012647    3    3    5    5
 0.6278838594012642    3    3    6    6
 0.01357930371008958    3    3    7    1
 0.07582401108974401    3    3    7    3
 0.6308097849190467    3    3    7    7
 0.6335577951470468    3    3    8    8
 0.6335577951470465    3    3    9    9
 0.008862349560903487    3    3   10    2
 0.0854221054490111    3    3   10    4
 0.6589834505665376    3    3   10   10
 0.1191361779739343    3    3   11    5
 0.544113535729307    3    3   11   11
 0.1191361779739342    3    3   12    6
 0.5441135357293065    3    3   12   12
 -0.01457609367807499    3    3   13    2
 0.05051967289201063    3    3   13    4
 -0.1406099722993444    3    3   13   10
 0.4812311715369765    3    3   13   13
 -0.1320841110231668    3    3   14    8
 0.504388600743939    3    3   14   14
 -0.1320841110231669    3    3   15    9
 0.504388600743939    3    3   15   15
 0.01529632537647158    3    3   16    1
 -0.0427293744812225    3    3   16    3
 0.1155701004161038    3    3   16    7
 0.4844165832639566    3    3   16   16
 0.0002082242481013022    3    3   17    1
 0.0898133180323528    3    3   17    3
 0.04716343550919226    3    3   17    7
 0.01852500542130666    3    3   17   16
 0.6381935159858503    3    3   17   17
 0.005254511665188043    3    3   18    2
 -0.0791516758756341    3    3   18    4
 -0.06976936937001439    3    3   18   10
 0.005998494233300681    3    3   18   13
 0.5598743297862182    3    3   18   18
 -0.0008128265553147931    3    3   19    1
 0.02603633440482723    3    3   19    3
 0.0567097191022459    3    3   19    7
 0.01127412623049961    3    3   19   16
 -0.01052080249313471    3    3   19   17
 0.658945682592181    3    3   19   19
 0.06471986748680125    3    3   20    5
 -0.004171854197931072    3    3   20   11
 0.6508957357684662    3    3   20   20
 0.06471986748680122    3    3   21    6
 -0.004171854197931094    3    3   21   12
 0.6508957357684662    3    3   21   21
 0.6363671151543681    3    3   22   22
 0.6363671151543675    3    3   23   23
 0.636068071994527    3    3   24   24
 0.6360680719945273    3    3   25   25
 0.03843880707623514    3    3   26    8
 -0.02753581944246422    3    3   26   14
 0.6525784955663316    3    3   26   26
 0.03843880707623514    3    3   27    9
 -0.02753581944246422    3    3   27   15
 0.6525784955663316    3    3   27   27
 0.002088241760354536    3    3   28    2
 -0.008879293196628004    3    3   28    4
 0.03484444301152918    3    3   28   10
 -0.05209293732374548    3    3   28   13
 -0.04196416761133242    3    3   28   18
 0.6522458664380633    3    3   28   28
 -0.2780823536011023    4    1    2    1
 0.04360614911455377    4    1    3    2
 0.04740058421005677    4    1    4    1
 -0.01174226087719299    4    1    4    3
 -0.01232880351874208    4    1    7    2
 0.001193880596909468    4    1    7    4
 -0.008248208475325897    4    1    8    6
 -0.008248208475325891    4    1    9    5
 0.01111304726167597    4    1   10    1
 -0.007303341120570352    4    1   10    3
 -0.006932274593908053    4    1   10    7
 -0.009902871578765434    4    1   11    9
 -0.009902871578765435    4    1   12    8
 0.01768689999421802    4    1   13    1
 -0.001282616896686258    4    1   13    3
 0.008443806326228424    4    1   13    7
 0.008953953142978085    4    1   14    6
 0.01001297734477715    4    1   14   12
 0.008953953142978088    4    1   15    5
 0.01001297734477716    4    1   15   11
 -0.02675585329392156    4    1   16    2
 0.00655990208586394    4    1   16    4
 -0.005596655092546626    4    1   16   10
 0.008563659851114467    4    1   16   13
 0.03306678068545946    4    1   17    2
 -0.009944835436889834    4    1   17    4
 -0.01137388264583349    4    1   17   10
 0.004546756180634314    4    1   17   13
 -0.03405099447007427    4    1   18    1
 0.009982451985487367    4    1   18    3
 0.001472331994161378    4    1   18    7
 -0.002152608607385722    4    1   18   16
 0.01031133170755045    4    1   18   17
 -0.001962359875638265    4    1   19    2
 0.001120474572858431    4    1   19    4
 0.0002367675458429653    4    1   19   10
 -0.0004272474748106039    4    1   19   13
 -0.0009302672005310577    4    1   19   18
 -0.002153247611120066    4    1   20    9
 0.001280457683189438    4    1   20   15
 -0.002153247611120067    4    1   21    8
 0.001280457683189437    4    1   21   14
 -0.0008586222459803532    4    1   24   23
 -0.0008586222459802835    4    1   25   22
 -0.001001537048649909    4    1   26    6
 -0.0002020973455867352    4    1   26   12
 -0.0007774619985955248    4    1   26   21
 -0.00100153704864991    4    1   27    5
 -0.0002020973455867364    4    1   27   11
 -0.0007774619985955248    4    1   27   20
 -0.007604531909958014    4    1   28    1
 0.001758926282852841    4    1   28    3
 -0.001680324155132684    4    1   28    7
 -0.001501239371803764    4    1   28   16
 0.001432149758063454    4    1   28   17
 -0.0009018176590700724    4    1   28   19
 -0.2791217692968664    4    2    1    1
 -0.2791244222706802    4    2    2    2
 0.04359664252613117    4    2    3    1
 -0.01322284052566301    4    2    3    3
 0.04740814537185643    4    2    4    2
 -0.01297921256134989    4    2    4    4
 -0.008617220634242126    4    2    5    5
 -0.008617220634242124    4    2    6    6
 -0.01237752885715098    4    2    7    1
 -0.00131558320824464    4    2    7    3
 -0.007711022646905539    4    2    7    7
 -0.009748914100312943    4    2    8    8
 -0.009748914100312929    4    2    9    9
 0.01106755291163771    4    2   10    2
 -0.005504057760008687    4    2   10    4
 -0.01178618239312667    4    2   10   10
 -0.009273802837036643    4    2   11    5
 -0.01129361359597386    4    2   11   11
 -0.009273802837036637    4    2   12    6
 -0.01129361359597385    4    2   12   12
 0.01772875733898758    4    2   13    2
 -0.00381769973019423    4    2   13    4
 0.008181803503048127    4    2   13   10
 -0.009623692250683566    4    2   13   13
 0.009865454791568468    4    2   14    8
 -0.01014727769393844    4    2   14   14
 0.009865454791568466    4    2   15    9
 -0.01014727769393845    4    2   15   15
 -0.02679739411202554    4    2   16    1
 0.00427590349702953    4    2   16    3
 -0.007904580925980757    4    2   16    7
 -0.009387310949659089    4    2   16   16
 0.03303088481207184    4    2   17    1
 -0.01145913800414073    4    2   17    3
 -0.005070867942801633    4    2   17    7
 -0.001387183411006897    4    2   17   16
 -0.01554264698000265    4    2   17   17
 -0.03404203925269322    4    2   18    2
 0.009670199182000773    4    2   18    4
 0.007081377864508675    4    2   18   10
 -0.0004438877723464462    4    2   18   13
 -0.009272397663446869    4    2   18   18
 -0.001959831720889744    4    2   19    1
 0.000625106259360081    4    2   19    3
 -0.0008652430082639103    4    2   19    7
 0.0001088499738435413    4    2   19   16
 0.001385477288088301    4    2   19   17
 -0.00187934804029666    4    2   19   19
 -0.002370030945995356    4    2   20    5
 -0.001363537054631682    4    2   20   11
 -0.001918690582406644    4    2   20   20
 -0.002370030945995355    4    2   21    6
 -0.00136353705463168    4    2   21   12
 -0.001918690582406644    4    2   21   21
 -0.001776758081761608    4    2   22   22
 -0.001776758081761626    4    2   23   23
 -0.001772580713723611    4    2   24   24
 -0.001772580713723592    4    2   25   25
 -0.001214759850950532    4    2   26    8
 0.0002782450309948503    4    2   26   14
 -0.001889629611729874    4    2   26   26
 -0.001214759850950532    4    2   27    9
 0.0002782450309948516    4    2   27   15
 -0.001889629611729874    4    2   27   27
 -0.007608566421346057    4    2   28    2
 0.002303869621273846    4    2   28    4
 -0.0007547258349349402    4    2   28   10
 0.001300023595307689    4    2   28   13
 -0.001394091821401031    4    2   28   18
 -0.002576350739657359    4    2   28   28
 0.4391143681519116    4    3    2    1
 -0.01200086264443912    4    3    3    2
 -0.01174226087719297    4    3    4    1
 0.2434672098552193    4    3    4    3
 -0.0004747983262036241    4    3    7    2
 -0.1177930578973418    4    3    7    4
 0.2517482111128558    4    3    8    6
 0.2517482111128558    4    3    9    5
 -0.006480920344511616    4    3   10    1
 0.06618672004906516    4    3   10    3
 0.2214848496339464    4    3   10    7
 0.1216621260075223    4    3   11    9
 0.1216621260075223    4    3   12    8
 -0.0007572610823858766    4    3   13    1
 0.01682383108106036    4    3   13    3
 -0.09856581039541026    4    3   13    7
 -0.0826628216475009    4    3   14    6
 -0.1750814985568362    4    3   14   12
 -0.08266282164750104    4    3   15    5
 -0.1750814985568363    4    3   15   11
 0.003347031174525709    4    3   16    2
 -0.06391378739615905    4    3   16    4
 0.04474105834811081    4    3   16   10
 -0.2014485596093907    4    3   16   13
 -0.01040946513461944    4    3   17    2
 0.07402640813650566    4    3   17    4
 0.1056996242287194    4    3   17   10
 -0.0401078221665401    4    3   17   13
 0.008881866118231746    4    3   18    1
 -0.06363696686320702    4    3   18    3
 0.006076680803359085    4    3   18    7
 0.06485334375910028    4    3   18   16
 -0.1461638108986269    4    3   18   17
 0.0008208567155556618    4    3   19    2
 -0.0166934531122035    4    3   19    4
 -0.08195830224323736    4    3   19   10
 0.004466516743259033    4    3   19   13
 -0.07322067506814522    4    3   19   18
 -0.03154685686009481    4    3   20    9
 -0.03531461709246785    4    3   20   15
 -0.03154685686009482    4    3   21    8
 -0.03531461709246789    4    3   21   14
 0.2578249536590027    4    3   24   23
 0.2578249536590028    4    3   25   22
 -0.01351414356157415    4    3   26    6
 -0.03301436796346757    4    3   26   12
 0.2447048225231822    4    3   26   21
 -0.01351414356157416    4    3   27    5
 -0.03301436796346758    4    3   27   11
 0.2447048225231822    4    3   27   20
 0.001557634557621755    4    3   28    1
 -0.008669663921410263    4    3   28    3
 0.002196996009815975    4    3   28    7
 0.0205367124687716    4    3   28   16
 -0.02683071032712492    4    3   28   17
 0.2274450143485658    4    3   28   19
 0.8374517202186591    4    4    1    1
 0.8374553944913927    4    4    2    2
 -0.01302973506923487    4    4    3    1
 0.6313446448687181    4    4    3    3
 -0.01297921256134988    4    4    4    2
 0.6380999603822838    4    4    4    4
 0.6089049195329517    4    4    5    5
 0.6089049195329512    4    4    6    6
 -5.253818618722193e-05    4    4    7    1
 0.0002431482104973028    4    4    7    3
 0.6226803415863743    4    4    7    7
 0.6262341014167992    4    4    8    8
 0.6262341014167989    4    4    9    9
 -0.006898817244551337    4    4   10    2
 0.02261518088929981    4    4   10    4
 0.625847956715551    4    4   10   10
 0.1292281775749693    4    4   11    5
 0.5288408051824162    4    4   11   11
 0.1292281775749692    4    4   12    6
 0.5288408051824157    4    4   12   12
 -0.0008609099949766459    4    4   13    2
 0.07260252812849831    4    4   13    4
 -0.1258614774801213    4    4   13   10
 0.5068198874533995    4    4   13   13
 -0.126869226952036    4    4   14    8
 0.4993654642282063    4    4   14   14
 -0.1268692269520361    4    4   15    9
 0.4993654642282062    4    4   15   15
 0.00374973011182311    4    4   16    1
 -0.05700072652275902    4    4   16    3
 0.1199910108749299    4    4   16    7
 0.5162278343415988    4    4   16   16
 -0.01137448628255583    4    4   17    1
 0.08519383096580424    4    4   17    3
 0.04144827536485372    4    4   17    7
 0.005046874651297202    4    4   17   16
 0.5680318231273442    4    4   17   17
 0.009620112384913266    4    4   18    2
 -0.08221117082431691    4    4   18    4
 -0.03738314485431728    4    4   18   10
 -0.01937565918465572    4    4   18   13
 0.5314309594481303    4    4   18   18
 0.001497239941818818    4    4   19    1
 0.005777861489091434    4    4   19    3
 -0.008135610050734031    4    4   19    7
 -0.004606064869423518    4    4   19   16
 -0.01426381142386754    4    4   19   17
 0.6343329104104192    4    4   19   19
 0.009370011334985783    4    4   20    5
 -0.01714734465721504    4    4   20   11
 0.6269416104997051    4    4   20   20
 0.009370011334985781    4    4   21    6
 -0.01714734465721504    4    4   21   12
 0.6269416104997051    4    4   21   21
 0.6238057449685755    4    4   22   22
 0.623805744968575    4    4   23   23
 0.6241737668448802    4    4   24   24
 0.6241737668448806    4    4   25   25
 -0.01432546607815717    4    4   26    8
 -0.01110650304967378    4    4   26   14
 0.6313912204767489    4    4   26   26
 -0.01432546607815716    4    4   27    9
 -0.01110650304967375    4    4   27   15
 0.6313912204767489    4    4   27   27
 0.00235153714085804    4    4   28    2
 -0.01269049787360266    4    4   28    4
 -0.02232510502346485    4    4   28   10
 -0.02938746483788619    4    4   28   13
 -0.03761243688841769    4    4   28   18
 0.6261612447214916    4    4   28   28
 0.01937652921894115    5    1    5    1
 0.02040097906715248    5    1    5    3
 -0.0036638155645594    5    1    7    5
 0.02099110610876748    5    1    9    2
 0.02236363958942058    5    1    9    4
 0.006035911875849518    5    1   10    9
 0.02272454836811168    5    1   11    1
 0.01122514849381523    5    1   11    3
 -0.004108119413316742    5    1   11    7
 0.004960959314387213    5    1   13    9
 -0.02154047489892463    5    1   15    2
 -0.01090137851762992    5    1   15    4
 -0.005433983301976294    5    1   15   10
 -0.004978538264302392    5    1   15   13
 -0.007026778725528566    5    1   16    5
 -0.009263075115239194    5    1   16   11
 0.007937108087652169    5    1   17    5
 0.01352870359954095    5    1   17   11
 -0.006731557292372263    5    1   18    9
 0.01236952012421332    5    1   18   15
 -0.009137366095976382    5    1   19    5
 -0.005580245316290669    5    1   19   11
 0.00075743781445779    5    1   20    1
 0.003135754130242154    5    1   20    3
 0.01491766605018133    5    1   20    7
 0.005690465372398981    5    1   20   16
 0.005248239813861827    5    1   20   17
 -0.001630643923990034    5    1   20   19
 -0.01502564431674696    5    1   22    5
 -0.008552131998233407    5    1   22   11
 -0.0001698006632034262    5    1   22   20
 0.01502564431674695    5    1   23    6
 0.008552131998233393    5    1   23   12
 0.0001698006632034256    5    1   23   21
 0.01576443840287547    5    1   24    8
 -0.00724644727115892    5    1   24   14
 -0.01576443840287547    5    1   25    9
 0.00724644727115893    5    1   25   15
 -1.953301650396671e-05    5    1   26   24
 -0.001896555203395976    5    1   27    2
 -0.002408521394038924    5    1   27    4
 0.01539786921199563    5    1   27   10
 -0.008631139407792792    5    1   27   13
 0.0005462476692199841    5    1   27   18
 1.953301650396642e-05    5    1   27   25
 -0.01051628128922705    5    1   28    9
 0.00762000550729765    5    1   28   15
 0.001724984815919023    5    1   28   27
 0.0192198335364653    5    2    5    2
 0.01983359080479602    5    2    5    4
 0.02082575820855354    5    2    9    1
 0.01943819051113948    5    2    9    3
 -0.005193594131979501    5    2    9    7
 0.005702062572416957    5    2   10    5
 0.02256703268838121    5    2   11    2
 0.01317718718973474    5    2   11    4
 0.003732035527852221    5    2   11   10
 0.004460941813331737    5    2   13    5
 0.00556203199176147    5    2   13   11
 -0.02138935043656436    5    2   15    1
 -0.01052949344543492    5    2   15    3
 0.001145678966156172    5    2   15    7
 -0.007693635223189987    5    2   16    9
 0.008270680431473236    5    2   16   15
 0.009903570671475863    5    2   17    9
 -0.01085996258730177    5    2   17   15
 -0.00666964379796008    5    2   18    5
 -0.01127365681737715    5    2   18   11
 -0.009355210730569956    5    2   19    9
 0.00450797579972043    5    2   19   15
 0.0007221551587753949    5    2   20    2
 -0.002358994520696805    5    2   20    4
 0.01409077169045151    5    2   20   10
 -0.007536796605671485    5    2   20   13
 -0.001461976221252858    5    2   20   18