 &FCI NORB=   4,NELEC= 4,MS2=0,
  ORBSYM=1,1,1,1,
  ISYM=1,
 &END
 0.7912276603999572    1    1    1    1
 0.7601407789165814    1    1    2    2
 -0.2031142232006246    1    1    3    2
 0.6236120691974875    1    1    3    3
 0.1691203664573147    1    1    4    1
 0.6605868190355559    1    1    4    4
 0.2945504546548144    2    1    2    1
 -0.1293242883238348    2    1    3    1
 0.1446071082868758    2    1    4    2
 -0.2243750117091445    2    1    4    3
 0.7601407789165814    2    2    1    1
 0.7545050175703507    2    2    2    2
 -0.19193300252041    2    2    3    2
 0.6217232167458644    2    2    3    3
 0.1732490281356764    2    2    4    1
 0.6463775085583126    2    2    4    4
 -0.1293242883238349    3    1    2    1
 0.1012868626166519    3    1    3    1
 -0.1069210360088439    3    1    4    2
 0.09827467263989721    3    1    4    3
 -0.2031142232006247    3    2    1    1
 -0.1919330025204103    3    2    2    2
 0.1343906147445658    3    2    3    2
 -0.1355481670722795    3    2    3    3
 -0.1162654585978097    3    2    4    1
 -0.1562828825585605    3    2    4    4
 0.6236120691974878    3    3    1    1
 0.6217232167458649    3    3    2    2
 -0.1355481670722802    3    3    3    2
 0.548536279004325    3    3    3    3
 0.1262653867108983    3    3    4    1
 0.5585115775617709    3    3    4    4
 0.1691203664573148    4    1    1    1
 0.1732490281356767    4    1    2    2
 -0.1162654585978097    4    1    3    2
 0.1262653867108978    4    1    3    3
 0.1127417791588639    4    1    4    1
 0.1303728882389092    4    1    4    4
 0.1446071082868759    4    2    2    1
 -0.1069210360088439    4    2    3    1
 0.1168172036562347    4    2    4    2
 -0.1109376079841443    4    2    4    3
 -0.2243750117091449    4    3    2    1
 0.09827467263989709    4    3    3    1
 -0.1109376079841444    4    3    4    2
 0.191878587813626    4    3    4    3
 0.6605868190355564    4    4    1    1
 0.6463775085583132    4    4    2    2
 -0.1562828825585607    4    4    3    2
 0.5585115775617707    4    4    3    3
 0.1303728882389096    4    4    4    1
 0.5930980585140528    4    4    4    4
 -3.160789199257439    1    1  0  0
 -2.671706652234162    2    2  0  0
 0.4688371591836229    3    2  0  0
 -0.8342846483676357    3    3  0  0
 -0.371011313911603    4    1  0  0
 -0.8939752260217078    4    4  0  0
 2.11670884368  0  0  0  0
