 &FCI NORB=  28,NELEC=12,MS2=0,
  ORBSYM=1,1,1,1,1,1,1,1,1,1,1,1,1,1,1,1,1,1,1,1,1,1,1,1,1,1,1,1,
  ISYM=1,
 &END
 1.965959824263737    1    1    1    1
 1.967081040047646    1    1    2    2
 -0.1744902006912245    1    1    3    1
 0.7023004820996911    1    1    3    3
 -0.1530547810723631    1    1    4    2
 0.5550016551861675    1    1    4    4
 0.5810743561060148    1    1    5    5
 0.5810743561060148    1    1    6    6
 0.03440635218300585    1    1    7    1
 0.09494878766993142    1    1    7    3
 0.5605185523323415    1    1    7    7
 0.4911832134184958    1    1    8    8
 0.4911832134184958    1    1    9    9
 -0.09131340711242605    1    1   10    2
 0.1245684683975263    1    1   10    4
 0.3218660554927726    1    1   10   10
 -0.01085826065590773    1    1   11    1
 -0.07021011688318521    1    1   11    3
 -0.1755157341228623    1    1   11    7
 0.4410816938407577    1    1   11   11
 0.1973144033058649    1    1   12    5
 0.4862101656668792    1    1   12   12
 0.1973144033058649    1    1   13    6
 0.4862101656668792    1    1   13   13
 -0.1335177493077628    1    1   14    1
 0.1304760060847354    1    1   14    3
 -0.1040455748961894    1    1   14    7
 0.01720799783765749    1    1   14   11
 0.4911528937662326    1    1   14   14
 -0.2167834029671454    1    1   15    8
 0.5453332145764288    1    1   15   15
 -0.2167834029671454    1    1   16    9
 0.5453332145764288    1    1   16   16
 0.005469776404580779    1    1   17    2
 -0.07968108727576746    1    1   17    4
 0.0249188774452537    1    1   17   10
 0.608790362249938    1    1   17   17
 0.5022143051510373    1    1   18   18
 0.5022143051510373    1    1   19   19
 0.1377673379999065    1    1   20    2
 -0.124280104155806    1    1   20    4
 -0.1249706780947987    1    1   20   10
 -0.09913959967334221    1    1   20   17
 0.5078663717630864    1    1   20   20
 -0.01332251789567222    1    1   21    5
 -0.02282972050577161    1    1   21   12
 0.5402265874436811    1    1   21   21
 -0.01332251789567222    1    1   22    6
 -0.02282972050577161    1    1   22   13
 0.5402265874436811    1    1   22   22
 0.4907658649194481    1    1   23   23
 0.4907658649194482    1    1   24   24
 0.009968277575151948    1    1   25    1
 0.004253347351543306    1    1   25    3
 0.0210468451144393    1    1   25    7
 -0.05407899022133887    1    1   25   11
 0.01923752441240981    1    1   25   14
 0.5159108803929751    1    1   25   25
 0.04867961471973768    1    1   26    8
 -0.1052070658281216    1    1   26   15
 0.5154629187499238    1    1   26   26
 0.04867961471973768    1    1   27    9
 -0.1052070658281216    1    1   27   16
 0.5154629187499238    1    1   27   27
 -0.05887197218917206    1    1   28    2
 -0.02129393281618419    1    1   28    4
 0.00140860875716036    1    1   28   10
 0.2124082407822378    1    1   28   17
 -0.1344999861328445    1    1   28   20
 0.7590158680995056    1    1   28   28
 1.54095231354287    2    1    2    1
 -0.1822853054529682    2    1    3    2
 -0.1464151287393707    2    1    4    1
 0.1611942604279432    2    1    4    3
 0.01993954129112179    2    1    7    2
 -0.1739135346818295    2    1    7    4
 0.1799129938919625    2    1    8    6
 0.1799129938919625    2    1    9    5
 -0.0901853393775764    2    1   10    1
 0.08928134754123075    2    1   10    3
 -0.007395329623621919    2    1   10    7
 0.001422774880856752    2    1   11    2
 0.05602028501989532    2    1   11    4
 0.0614812186740777    2    1   11   10
 0.09747560000310325    2    1   12    9
 0.09747560000310325    2    1   13    8
 -0.1285191728460036    2    1   14    2
 0.1482205277924506    2    1   14    4
 0.08632762735894667    2    1   14   10
 -0.1710468455261318    2    1   15    6
 -0.1926657618390697    2    1   15   13
 -0.1710468455261318    2    1   16    5
 -0.1926657618390697    2    1   16   12
 -0.009280908819991704    2    1   17    1
 0.0752678588813573    2    1   17    3
 0.1828235637671312    2    1   17    7
 -0.117874877055367    2    1   17   11
 -0.1299441260453539    2    1   17   14
 0.1406444357019051    2    1   20    1
 -0.1523776985265632    2    1   20    3
 -0.03923893790668535    2    1   20    7
 0.01838224049354733    2    1   20   11
 -0.1055108311752472    2    1   20   14
 -0.1101738261914954    2    1   21    9
 0.09252052182801901    2    1   21   16
 -0.1101738261914954    2    1   22    8
 0.09252052182801901    2    1   22   15
 0.1366195863366672    2    1   23   19
 0.1366195863366673    2    1   24   18
 0.009209768425774542    2    1   25    2
 -0.01223124361680541    2    1   25    4
 -0.03448982238719303    2    1   25   10
 -0.1063331055429556    2    1   25   17
 0.07749605567893497    2    1   25   20
 0.05383447107216414    2    1   26    6
 0.07726883960397396    2    1   26   13
 0.1042918980360975    2    1   26   22
 0.05383447107216414    2    1   27    5
 0.07726883960397396    2    1   27   12
 0.1042918980360975    2    1   27   21
 -0.0779769399677737    2    1   28    1
 0.1253029644542936    2    1   28    3
 0.1328633429411435    2    1   28    7
 -0.1689903076938814    2    1   28   11
 -0.007227540624103749    2    1   28   14
 0.06152401292553312    2    1   28   25
 1.967081040047646    2    2    1    1
 1.968203630479024    2    2    2    2
 -0.1746916878879375    2    2    3    1
 0.7022400191290791    2    2    3    3
 -0.1531980802032235    2    2    4    2
 0.5550737672081536    2    2    4    4
 0.5810686284883222    2    2    5    5
 0.5810686284883222    2    2    6    6
 0.0344024928691868    2    2    7    1
 0.09486627230762014    2    2    7    3
 0.5605290894716984    2    2    7    7
 0.4912078062383162    2    2    8    8
 0.4912078062383162    2    2    9    9
 -0.09140846028681708    2    2   10    2
 0.1245936028679925    2    2   10    4
 0.3218857820277364    2    2   10   10
 -0.01083412768663312    2    2   11    1
 -0.0701629585000475    2    2   11    3
 -0.1755078418632904    2    2   11    7
 0.4410735296661483    2    2   11   11
 0.1973261992594656    2    2   12    5
 0.486223925179994    2    2   12   12
 0.1973261992594656    2    2   13    6
 0.486223925179994    2    2   13   13
 -0.1336407893825654    2    2   14    1
 0.1304966548207758    2    2   14    3
 -0.1041048379409048    2    2   14    7
 0.01725684543113265    2    2   14   11
 0.4911982827704882    2    2   14   14
 -0.2168170534782115    2    2   15    8
 0.5453847517449532    2    2   15   15
 -0.2168170534782115    2    2   16    9
 0.5453847517449532    2    2   16   16
 0.005427984571184847    2    2   17    2
 -0.07973523619199589    2    2   17    4
 0.02489638753855605    2    2   17   10
 0.608836607552244    2    2   17   17
 0.5021922354435238    2    2   18   18
 0.5021922354435238    2    2   19   19
 0.1379196261286369    2    2   20    2
 -0.1243036824048914    2    2   20    4
 -0.1249828765423519    2    2   20   10
 -0.09911853085594113    2    2   20   17
 0.5078749757338894    2    2   20   20
 -0.0133886135587116    2    2   21    5
 -0.02287351405918474    2    2   21   12
 0.5402176266375217    2    2   21   21
 -0.0133886135587116    2    2   22    6
 -0.02287351405918474    2    2   22   13
 0.5402176266375217    2    2   22   22
 0.4907642788359242    2    2   23   23
 0.4907642788359243    2    2   24   24
 0.009976300219129073    2    2   25    1
 0.004199477083774797    2    2   25    3
 0.02099062634419613    2    2   25    7
 -0.05404292746606074    2    2   25   11
 0.01923724114293861    2    2   25   14
 0.5158976085638405    2    2   25   25
 0.04866305966950209    2    2   26    8
 -0.1052041645213004    2    2   26   15
 0.5154690652705767    2    2   26   26
 0.04866305966950209    2    2   27    9
 -0.1052041645213004    2    2   27   16
 0.5154690652705767    2    2   27   27
 -0.05899901653704355    2    2   28    2
 -0.02130650658657135    2    2   28    4
 0.001396559109899629    2    2   28   10
 0.2124206252914945    2    2   28   17
 -0.1344735136766765    2    2   28   20
 0.7590375521642534    2    2   28   28
 -0.1744902006912246    3    1    1    1
 -0.1746916878879374    3    1    2    2
 0.03103770988939897    3    1    3    1
 0.0007517780303842967    3    1    3    3
 0.02240913137389381    3    1    4    2
 -0.009589790396934948    3    1    4    4
 -0.0007124086491837136    3    1    5    5
 -0.0007124086491837136    3    1    6    6
 0.0002736462630466106    3    1    7    1
 0.006262132939815375    3    1    7    3
 -0.004287009951072542    3    1    7    7
 -0.003103611505279603    3    1    8    8
 -0.003103611505279603    3    1    9    9
 0.01485408696303504    3    1   10    2
 -0.003696935709289027    3    1   10    4
 -0.002740152837743679    3    1   10   10
 -0.003590277518096039    3    1   11    1
 -0.002744238450103109    3    1   11    3
 0.001826087960797043    3    1   11    7
 -0.001630626425372275    3    1   11   11
 -0.002598523602211555    3    1   12    5
 -0.002962343608074785    3    1   12   12
 -0.002598523602211555    3    1   13    6
 -0.002962343608074785    3    1   13   13
 0.01905132880243408    3    1   14    1
 -0.004285250974427631    3    1   14    3
 0.006882242661682325    3    1   14    7
 -0.00536620108727997    3    1   14   11
 -0.006889177804049294    3    1   14   14
 0.004555656855739514    3    1   15    8
 -0.007098584762884948    3    1   15   15
 0.004555656855739514    3    1   16    9
 -0.007098584762884948    3    1   16   16
 0.006657266748886247    3    1   17    2
 0.006881710786925769    3    1   17    4
 0.002461473822267247    3    1   17   10
 -0.008220816883821098    3    1   17   17
 0.002099292657211003    3    1   18   18
 0.002099292657210994    3    1   19   19
 -0.02378449261670438    3    1   20    2
 0.003694271439525876    3    1   20    4
 0.002213519045179732    3    1   20   10
 -0.001281067978481114    3    1   20   17
 -0.002656617056926575    3    1   20   20
 0.006450929068780437    3    1   21    5
 0.00457204781983886    3    1   21   12
 -0.0005905811540832979    3    1   21   21
 0.006450929068780437    3    1   22    6
 0.00457204781983886    3    1   22   13
 -0.0005905811540832979    3    1   22   22
 0.0004135222188802699    3    1   23   23
 0.0004135222188802799    3    1   24   24
 -0.002097855541059407    3    1   25    1
 0.003375730554035132    3    1   25    3
 0.005302867052018129    3    1   25    7
 -0.003217477215795816    3    1   25   11
 -0.001109148698019629    3    1   25   14
 -0.0003401015899575459    3    1   25   25
 0.001243230803664501    3    1   26    8
 0.0004225069237689565    3    1   26   15
 -0.00132353014494014    3    1   26   26
 0.001243230803664501    3    1   27    9
 0.0004225069237689565    3    1   27   16
 -0.00132353014494014    3    1   27   27
 0.01998415396571195    3    1   28    2
 0.001288563130852753    3    1   28    4
 0.0006121560788645135    3    1   28   10
 -0.005394422255417457    3    1   28   17
 -0.0004403377810821054    3    1   28   20
 -0.009212915820326548    3    1   28   28
 -0.1822853054529684    3    2    2    1
 0.03083980058833021    3    2    3    2
 0.02263406402801093    3    2    4    1
 -0.008348922450944587    3    2    4    3
 -0.0002371610019720808    3    2    7    2
 0.009372646526638018    3    2    7    4
 -0.006248775037547097    3    2    8    6
 -0.006248775037547097    3    2    9    5
 0.01489264686867419    3    2   10    1
 -0.004320670919084245    3    2   10    3
 0.001760442686444026    3    2   10    7
 -0.003153097332115262    3    2   11    2
 -0.003806194598619049    3    2   11    4
 -0.003068345593036701    3    2   11   10
 -0.004370152938487208    3    2   12    9
 -0.004370152938487208    3    2   13    8
 0.01926115772720715    3    2   14    2
 -0.009761642930560586    3    2   14    4
 -0.005152451636942617    3    2   14   10
 0.007021467055252371    3    2   15    6
 0.008360685671650882    3    2   15   13
 0.007021467055252371    3    2   16    5
 0.008360685671650882    3    2   16   12
 0.006149319967930862    3    2   17    1
 -6.763942809535725e-05    3    2   17    3
 -0.009064089913079521    3    2   17    7
 0.006279119597402263    3    2   17   11
 0.008007216970090646    3    2   17   14
 -0.02369024554512209    3    2   20    1
 0.005751758528197704    3    2   20    3
 -0.0006045966094388071    3    2   20    7
 0.0005619814705737749    3    2   20   11
 0.005257120766181908    3    2   20   14
 0.005641633459863175    3    2   21    9
 -0.005784974670459177    3    2   21   16
 0.005641633459863175    3    2   22    8
 -0.005784974670459177    3    2   22   15
 -0.00306246469580824    3    2   23   19
 -0.00306246469580826    3    2   24   18
 -0.00215499446672788    3    2   25    2
 -0.001428609308601371    3    2   25    4
 0.0006657086263857884    3    2   25   10
 0.005714004273812299    3    2   25   17
 -0.002896777793182355    3    2   25   20
 -0.0005346659826067537    3    2   26    6
 -0.002208653678898441    3    2   26   13
 -0.002492724209402301    3    2   26   22
 -0.0005346659826067537    3    2   27    5
 -0.002208653678898441    3    2   27   12
 -0.002492724209402301    3    2   27   21
 0.01928727002752667    3    2   28    1
 -0.003577063970136986    3    2   28    3
 -0.00500243277728225    3    2   28    7
 0.006913070398960801    3    2   28   11
 0.002240381239136411    3    2   28   14
 0.0005085766971145845    3    2   28   25
 0.702300482099691    3    3    1    1
 0.7022400191290793    3    3    2    2
 0.0007517780303842862    3    3    3    1
 0.649001512905951    3    3    3    3
 -0.01592676056705874    3    3    4    2
 0.4395565653710515    3    3    4    4
 0.5276592717183086    3    3    5    5
 0.5276592717183086    3    3    6    6
 0.02104389703720155    3    3    7    1
 0.1215985473012768    3    3    7    3
 0.4707237631302    3    3    7    7
 0.4264565461836204    3    3    8    8
 0.4264565461836204    3    3    9    9
 -0.005355604709145343    3    3   10    2
 0.08207831077346658    3    3   10    4
 0.2872031372680121    3    3   10   10
 -0.01714789869638025    3    3   11    1
 -0.06404153292304395    3    3   11    3
 -0.1253258084998966    3    3   11    7
 0.3950512429686793    3    3   11   11
 0.1315148493893802    3    3   12    5
 0.4205255911462789    3    3   12   12
 0.1315148493893802    3    3   13    6
 0.4205255911462789    3    3   13   13
 -0.01372646530780535    3    3   14    1
 0.07148606394422055    3    3   14    3
 -0.03411611466653863    3    3   14    7
 -0.03605211651196921    3    3   14   11
 0.4097530695832147    3    3   14   14
 -0.134510112022277    3    3   15    8
 0.4273838373078072    3    3   15   15
 -0.134510112022277    3    3   16    9
 0.4273838373078072    3    3   16   16
 0.02177929018862248    3    3   17    2
 -0.007539118115058004    3    3   17    4
 0.04203130999754663    3    3   17   10
 0.4824047282395644    3    3   17   17
 0.4994879785890264    3    3   18   18
 0.4994879785890264    3    3   19   19
 0.001365617136695377    3    3   20    2
 -0.07504304050639282    3    3   20    4
 -0.08936794283416206    3    3   20   10
 -0.08350456994821009    3    3   20   17
 0.4421380762407387    3    3   20   20
 0.05571786687852494    3    3   21    5
 0.02157689084767653    3    3   21   12
 0.5061369815125386    3    3   21   21
 0.05571786687852494    3    3   22    6
 0.02157689084767653    3    3   22   13
 0.5061369815125386    3    3   22   22
 0.4678167870094248    3    3   23   23
 0.4678167870094248    3    3   24   24
 6.373661087991726e-05    3    3   25    1
 0.03431647945993314    3    3   25    3
 0.05825595892895779    3    3   25    7
 -0.06710461509386002    3    3   25   11
 0.0092495281981413    3    3   25   14
 0.4750975732019548    3    3   25   25
 0.04757513650843354    3    3   26    8
 -0.07700690762315504    3    3   26   15
 0.4628734542693711    3    3   26   26
 0.04757513650843354    3    3   27    9
 -0.07700690762315504    3    3   27   16
 0.4628734542693711    3    3   27   27
 0.02552111143627415    3    3   28    2
 -0.00795962637979457    3    3   28    4
 -9.059784664290638e-05    3    3   28   10
 0.1131539399934895    3    3   28   17
 -0.1056433145665938    3    3   28   20
 0.5741735742777824    3    3   28   28
 -0.1464151287393709    4    1    2    1
 0.02263406402801094    4    1    3    2
 0.02258328332756511    4    1    4    1
 -0.00271176698348766    4    1    4    3
 -0.007925599427328458    4    1    7    2
 -0.00362017389524962    4    1    7    4
 -0.0007664739348372056    4    1    8    6
 -0.0007664739348372056    4    1    9    5
 0.01297466717916005    4    1   10    1
 -0.003273770653646153    4    1   10    3
 -0.0001311254410829704    4    1   10    7
 0.004746259949681879    4    1   11    2
 8.521071639236753e-05    4    1   11    4
 0.002251717363605972    4    1   11   10
 -0.003275800522859426    4    1   12    9
 -0.003275800522859426    4    1   13    8
 0.01997999101923563    4    1   14    2
 -0.001258843023406913    4    1   14    4
 -0.0008376497660945271    4    1   14   10
 0.003437186304994564    4    1   15    6
 0.003667401317274578    4    1   15   13
 0.003437186304994564    4    1   16    5
 0.003667401317274578    4    1   16   12
 -0.004980504448307461    4    1   17    1
 -0.004652180988575566    4    1   17    3
 -0.0009368733972204904    4    1   17    7
 0.003008586599504755    4    1   17   11
 -0.00306490742466178    4    1   17   14
 -0.01784207419852385    4    1   20    1
 0.00672122285041603    4    1   20    3
 0.0009932745113347731    4    1   20    7
 -0.002158926203709824    4    1   20   11
 0.002662358749580323    4    1   20   14
 -0.001772957179112287    4    1   21    9
 7.072297849206613e-05    4    1   21   16
 -0.001772957179112287    4    1   22    8
 7.072297849206613e-05    4    1   22   15
 0.001760575075617087    4    1   23   19
 0.001760575075617071    4    1   24   18
 0.000216539301761295    4    1   25    2
 0.001252196356706578    4    1   25    4
 -0.0002875290348867097    4    1   25   10
 -0.002587954875698642    4    1   25   17
 0.0009563191286218716    4    1   25   20
 -0.004079105794086158    4    1   26    6
 -0.003265809170495613    4    1   26   13
 0.003610484247619268    4    1   26   22
 -0.004079105794086158    4    1   27    5
 -0.003265809170495613    4    1   27   12
 0.003610484247619268    4    1   27   21
 0.001723667502565631    4    1   28    1
 -0.008296250692564676    4    1   28    3
 -0.007798886387058771    4    1   28    7
 0.006443813527303046    4    1   28   11
 -0.0002605355649094258    4    1   28   14
 0.002675410974931102    4    1   28   25
 -0.1530547810723633    4    2    1    1
 -0.1531980802032235    4    2    2    2
 0.02240913137389382    4    2    3    1
 -0.01592676056705873    4    2    3    3
 0.02280200464641169    4    2    4    2
 -0.002604482238956047    4    2    4    4
 -0.00654185532641932    4    2    5    5
 -0.00654185532641932    4    2    6    6
 -0.008369045899823671    4    2    7    1
 -0.006922263881267605    4    2    7    3
 -0.003567809291723967    4    2    7    7
 -0.002880396878198231    4    2    8    8
 -0.002880396878198231    4    2    9    9
 0.01302739342165446    4    2   10    2
 -0.003040392735499923    4    2   10    4
 -0.001400596792404115    4    2   10   10
 0.005129989659992887    4    2   11    1
 0.005143287405693025    4    2   11    3
 0.005203297322503219    4    2   11    7
 -0.005048026017113966    4    2   11   11
 -0.005746305955153037    4    2   12    5
 -0.006662016595220034    4    2   12   12
 -0.005746305955153037    4    2   13    6
 -0.006662016595220034    4    2   13   13
 0.02012734579556038    4    2   14    1
 -0.004785191872629095    4    2   14    3
 -0.001444259503877989    4    2   14    7
 0.001531325274626397    4    2   14   11
 -0.003098817163268404    4    2   14   14
 0.004575158985134206    4    2   15    8
 -0.00705799143858465    4    2   15   15
 0.004575158985134206    4    2   16    9
 -0.00705799143858465    4    2   16   16
 -0.005397074260169105    4    2   17    2
 -0.002633306622303277    4    2   17    4
 -0.002121351665328637    4    2   17   10
 -0.004889631478396543    4    2   17   17
 -0.002794633752089278    4    2   18   18
 -0.002794633752089281    4    2   19   19
 -0.01779518705810407    4    2   20    2
 0.005056813722982227    4    2   20    4
 0.003681485604939692    4    2   20   10
 0.004131154308444785    4    2   20   17
 -0.007433588420440557    4    2   20   20
 -0.0023865521359484    4    2   21    5
 -0.0001294597209514557    4    2   21   12
 -0.002312056366007366    4    2   21   21
 -0.0023865521359484    4    2   22    6
 -0.0001294597209514557    4    2   22   13
 -0.002312056366007366    4    2   22   22
 -0.001414807106446337    4    2   23   23
 -0.00141480710644633    4    2   24   24
 0.0001596321690577111    4    2   25    1
 -0.001891207956910601    4    2   25    3
 -0.003468282268104179    4    2   25    7
 0.001506971007988897    4    2   25   11
 0.000667096932198984    4    2   25   14
 -0.00200518489285816    4    2   25   25
 -0.004919136138141588    4    2   26    8
 0.005581569421355871    4    2   26   15
 -0.002530336145557205    4    2   26   26
 -0.004919136138141588    4    2   27    9
 0.005581569421355871    4    2   27   16
 -0.002530336145557205    4    2   27   27
 0.001166311152196695    4    2   28    2
 -0.0001498508701818835    4    2   28    4
 -0.002881996310746344    4    2   28   10
 -0.01220183910443731    4    2   28   17
 0.008569333809824249    4    2   28   20
 -0.01956248409896757    4    2   28   28
 0.1611942604279432    4    3    2    1
 -0.008348922450944598    4    3    3    2
 -0.002711766983487673    4    3    4    1
 0.06194425035110104    4    3    4    3
 -0.003714661262758958    4    3    7    2
 -0.0831565615676757    4    3    7    4
 0.0746842385596066    4    3    8    6
 0.0746842385596066    4    3    9    5
 -0.002528289259702028    4    3   10    1
 0.02608356861263129    4    3   10    3
 0.006358121509888726    4    3   10    7
 0.003722713476569083    4    3   11    2
 0.01351352921905787    4    3   11    4
 0.04164580869601434    4    3   11   10
 0.0153017065539083    4    3   12    9
 0.0153017065539083    4    3   13    8
 -0.002343768025658607    4    3   14    2
 0.04157451426885795    4    3   14    4
 0.03180132343943018    4    3   14   10
 -0.04735082490710116    4    3   15    6
 -0.06279208706574858    4    3   15   13
 -0.04735082490710116    4    3   16    5
 -0.06279208706574858    4    3   16   12
 -0.00489514438611061    4    3   17    1
 0.02194381585913061    4    3   17    3
 0.05559288915733902    4    3   17    7
 -0.02506568755818969    4    3   17   11
 -0.05679424661477285    4    3   17   14
 0.005211555546343703    4    3   20    1
 -0.03735463538259585    4    3   20    3
 -0.01998939513705373    4    3   20    7
 0.001858130397032795    4    3   20   11
 -0.03553794261360645    4    3   20   14
 -0.0512147766400051    4    3   21    9
 0.02901870268068969    4    3   21   16
 -0.0512147766400051    4    3   22    8
 0.02901870268068969    4    3   22   15
 0.07678963234655442    4    3   23   19
 0.07678963234655439    4    3   24   18
 -5.795995886017805e-05    4    3   25    2
 -0.004806102750858231    4    3   25    4
 -0.01778815980492502    4    3   25   10
 -0.05228643528880585    4    3   25   17
 0.03666707565405533    4    3   25   20
 0.007482994949242762    4    3   26    6
 0.01994752339254131    4    3   26   13
 0.06650636988868422    4    3   26   22
 0.007482994949242762    4    3   27    5
 0.01994752339254131    4    3   27   12
 0.06650636988868422    4    3   27   21
 -0.008360305267143668    4    3   28    1
 0.02118526061161768    4    3   28    3
 0.01614371029660514    4    3   28    7
 -0.04202495432205369    4    3   28   11
 0.00642448918219938    4    3   28   14
 0.04775240761876914    4    3   28   25
 0.5550016551861675    4    4    1    1
 0.5550737672081536    4    4    2    2
 -0.009589790396934951    4    4    3    1
 0.4395565653710516    4    4    3    3
 -0.002604482238956039    4    4    4    2
 0.4458030090896509    4    4    4    4
 0.4154739793598909    4    4    5    5
 0.4154739793598909    4    4    6    6
 -0.005374381646827724    4    4    7    1
 0.004998109298694995    4    4    7    3
 0.4371453965939531    4    4    7    7
 0.3910955976048597    4    4    8    8
 0.3910955976048597    4    4    9    9
 -0.002910029930878376    4    4   10    2
 0.05367276652359478    4    4   10    4
 0.2965045876491343    4    4   10   10
 0.005193428178316202    4    4   11    1
 -0.009821146906971421    4    4   11    3
 -0.06202762791346122    4    4   11    7
 0.3418598634072628    4    4   11   11
 0.07424010952797987    4    4   12    5
 0.3477928946080122    4    4   12   12
 0.07424010952797987    4    4   13    6
 0.3477928946080122    4    4   13   13
 -0.001545527164696774    4    4   14    1
 0.05057964179356403    4    4   14    3
 -0.0686196453308727    4    4   14    7
 0.01668311358986946    4    4   14   11
 0.3838728520687893    4    4   14   14
 -0.09516838466035263    4    4   15    8
 0.3771995976884456    4    4   15   15
 -0.09516838466035263    4    4   16    9
 0.3771995976884456    4    4   16   16
 -0.008130707479566561    4    4   17    2
 -0.06327938696412215    4    4   17    4
 0.007402090416218445    4    4   17   10
 0.4446937855958646    4    4   17   17
 0.4048115556042132    4    4   18   18
 0.4048115556042131    4    4   19   19
 0.006883710422643949    4    4   20    2
 -0.03319478468916338    4    4   20    4
 -0.0585589377049093    4    4   20   10
 -0.03737507095399088    4    4   20   17
 0.3689376498336957    4    4   20   20
 -0.02715712213159065    4    4   21    5
 -0.005466726841674319    4    4   21   12
 0.4343310157743836    4    4   21   21
 -0.02715712213159065    4    4   22    6
 -0.005466726841674319    4    4   22   13
 0.4343310157743836    4    4   22   22
 0.4109556891485446    4    4   23   23
 0.4109556891485447    4    4   24   24
 0.002062599632612765    4    4   25    1
 -0.006143139743314437    4    4   25    3
 -0.01870986158185287    4    4   25    7
 -0.03371116952412101    4    4   25   11
 0.02285255821497024    4    4   25   14
 0.4224429536535907    4    4   25   25
 -0.01985774547373678    4    4   26    8
 -0.02526482342575205    4    4   26   15
 0.4270731540739461    4    4   26   26
 -0.01985774547373678    4    4   27    9
 -0.02526482342575205    4    4   27   16
 0.4270731540739461    4    4   27   27
 -0.01160555145726135    4    4   28    2
 0.004101856564910427    4    4   28    4
 -0.02293038095136827    4    4   28   10
 0.02792860036722317    4    4   28   17
 -0.02256757511928692    4    4   28   20
 0.4561586490077344    4    4   28   28
 0.009846637789344853    5    1    5    1
 0.01465844350939387    5    1    5    3
 -0.001297897461722461    5    1    7    5
 0.008734728204397108    5    1    9    2
 0.01091408464680766    5    1    9    4
 0.004878930111219    5    1   10    9
 0.002236885575319905    5    1   11    5
 0.01133921989300047    5    1   12    1
 0.008309130794701861    5    1   12    3
 0.001638403109266366    5    1   12    7
 -0.001398968775888727    5    1   12   11
 0.003256149101370666    5    1   14    5
 0.007885436406892168    5    1   14   12
 -0.01360020581273512    5    1   16    2
 -0.0082221924216091    5    1   16    4
 -0.005974692461290378    5    1   16   10
 0.003531031222613812    5    1   17    9
 -0.0003179558550095591    5    1   17   16
 -0.009177830399601893    5    1   18    5
 -0.003144956623739997    5    1   18   12
 0.009177830399601889    5    1   19    6
 0.003144956623739992    5    1   19   13
 -0.005909254106965004    5    1   20    9
 0.01073548322996653    5    1   20   16
 -0.005057363727237591    5    1   21    1
 0.002727710042263944    5    1   21    3
 0.009275036569380129    5    1   21    7
 -0.002185002271158881    5    1   21   11
 -0.005224450161005229    5    1   21   14
 -9.449850236960334e-05    5    1   21   18
 9.449850236960611e-05    5    1   22   19
 0.007925346754109752    5    1   23    8
 -0.005186341884521564    5    1   23   15
 -0.007925346754109755    5    1   24    9
 0.005186341884521568    5    1   24   16
 -0.004903669833522745    5    1   25    5
 -0.003729297203066366    5    1   25   12
 0.004008468093452611    5    1   25   21
 0.001947995284642483    5    1   26   23
 0.006132395448941705    5    1   27    2
 -0.0006138797172993615    5    1   27    4
 0.002603723879533195    5    1   27   10
 0.00824906657112987    5    1   27   17
 -0.006708082186361883    5    1   27   20
 -0.001947995284642486    5    1   27   24
 -0.0002433182446173379    5    1   28    9
 -0.001709003714952478    5    1   28   16
 0.003801818597168288    5    1   28   27
 0.009303170973625624    5    2    5    2
 0.008597526707765216    5    2    5    4
 0.008346361977376411    5    2    9    1
 0.008001522459328489    5    2    9    3
 -0.003721421697258765    5    2    9    7
 0.004755023393392769    5    2   10    5
 0.001487569904401942    5    2   11    9
 0.01079886562726252    5    2   12    2
 0.0047801573975274    5    2   12    4
 0.003721478309684301    5    2   12   10
 0.004047943493353842    5    2   14    9
 -0.01304022846996807    5    2   16    1
 -0.007901850235008107    5    2   16    3
 0.00189319509355428    5    2   16    7
 -0.001508869817203085    5    2   16   11
 -0.006867702945123208    5    2   16   14
 0.003010867306122822    5    2   17    5
 0.00100814580929218    5    2   17   12
 -0.005371758011601274    5    2   18    9
 0.004166933776235104    5    2   18   16
 0.005371758011601272    5    2   19    8
 -0.004166933776235101    5    2   19   15
 -0.007243879565339261    5    2   20    5
 -0.007633399519540949    5    2   20   12
 -0.004994436630175117    5    2   21    2
 -0.006077461933662495    5    2   21    4