 &FCI NORB=  28,NELEC=14,MS2=0,
  ORBSYM=1,1,1,1,1,1,1,1,1,1,1,1,1,1,1,1,1,1,1,1,1,1,1,1,1,1,1,1,
  ISYM=1,
 &END
 2.30193397593001    1    1    1    1
 2.30287219648555    1    1    2    2
 -0.1986613998460494    1    1    3    1
 0.8382994029722073    1    1    3    3
 -0.1850828484098751    1    1    4    2
 0.6655373075570342    1    1    4    4
 0.07253191562255634    1    1    5    1
 0.0974700064711008    1    1    5    3
 0.6943023852387255    1    1    5    5
 0.6848805158807032    1    1    6    6
 0.6848805158807032    1    1    7    7
 0.6163690668608016    1    1    8    8
 0.6163690668608016    1    1    9    9
 -0.1162251595718285    1    1   10    2
 0.1378375256819171    1    1   10    4
 0.4139298062116751    1    1   10   10
 0.01154712915189855    1    1   11    1
 -0.1044739657340227    1    1   11    3
 -0.1644536291586459    1    1   11    5
 0.4928490590804511    1    1   11   11
 0.2370635209601195    1    1   12    6
 0.5888522816127739    1    1   12   12
 0.2370635209601195    1    1   13    7
 0.5888522816127739    1    1   13   13
 -0.1633401279489538    1    1   14    1
 0.1369509203041463    1    1   14    3
 -0.159428870532019    1    1   14    5
 -0.008952714072476754    1    1   14   11
 0.5746063139540545    1    1   14   14
 -0.2647481537175069    1    1   15    8
 0.6343686273804525    1    1   15   15
 -0.2647481537175069    1    1   16    9
 0.6343686273804525    1    1   16   16
 -0.004052019209256009    1    1   17    2
 -0.1070369088440805    1    1   17    4
 0.09804834973599361    1    1   17   10
 0.7709153706814754    1    1   17   17
 0.16798476600897    1    1   18    2
 -0.1453129831797223    1    1   18    4
 -0.1627808679009792    1    1   18   10
 -0.1217312191334271    1    1   18   17
 0.591983181985147    1    1   18   18
 0.5986947044276142    1    1   19   19
 0.5986947044276143    1    1   20   20
 -0.01544428521142072    1    1   21    6
 -0.03412684351692778    1    1   21   12
 0.6441092260496306    1    1   21   21
 -0.01544428521142072    1    1   22    7
 -0.03412684351692778    1    1   22   13
 0.6441092260496306    1    1   22   22
 0.5895902890428173    1    1   23   23
 0.5895902890428173    1    1   24   24
 0.02765478391583217    1    1   25    1
 -0.01116170946777313    1    1   25    3
 0.01093749120248761    1    1   25    5
 -0.04482502922690908    1    1   25   11
 0.01344889647758185    1    1   25   14
 0.633977668840071    1    1   25   25
 0.04589476425837426    1    1   26    8
 -0.09772342782732574    1    1   26   15
 0.6063603655680339    1    1   26   26
 0.04589476425837426    1    1   27    9
 -0.09772342782732574    1    1   27   16
 0.6063603655680339    1    1   27   27
 -0.06765620603678757    1    1   28    2
 -0.03164633558935615    1    1   28    4
 0.02243353078723225    1    1   28   10
 0.2433621891333602    1    1   28   17
 -0.1503377637740554    1    1   28   18
 0.8054868875009464    1    1   28   28
 1.820725028099343    2    1    2    1
 -0.209095791553559    2    1    3    2
 -0.1772414683374366    2    1    4    1
 0.1679869195386596    2    1    4    3
 0.055747318858942    2    1    5    2
 -0.2523456296341982    2    1    5    4
 0.2350791556447645    2    1    8    7
 0.2350791556447645    2    1    9    6
 -0.1174533482597322    2    1   10    1
 0.1274996403987266    2    1   10    3
 0.0005922679575688765    2    1   10    5
 0.02283848863571973    2    1   11    2
 0.03028109749719101    2    1   11    4
 0.04600385117287894    2    1   11   10
 0.1418732438517806    2    1   12    9
 0.1418732438517806    2    1   13    8
 -0.1571431475861928    2    1   14    2
 0.1834159627925611    2    1   14    4
 0.1026397312379056    2    1   14   10
 -0.1997566804749777    2    1   15    7
 -0.243000021444263    2    1   15   13
 -0.1997566804749777    2    1   16    6
 -0.243000021444263    2    1   16   12
 -0.02246533242686611    2    1   17    1
 0.1391050247747977    2    1   17    3
 0.2438938410604921    2    1   17    5
 -0.1284858669344944    2    1   17   11
 -0.1566072421794586    2    1   17   14
 0.1718268610746903    2    1   18    1
 -0.1846270603525518    2    1   18    3
 -0.01507530765346061    2    1   18    5
 0.04446731901032899    2    1   18   11
 -0.1422651217619407    2    1   18   14
 -0.1366981871173254    2    1   21    9
 0.09840457214193796    2    1   21   16
 -0.1366981871173254    2    1   22    8
 0.09840457214193796    2    1   22   15
 0.1767606892141966    2    1   23   20
 0.1767606892141965    2    1   24   19
 0.02885884929881339    2    1   25    2
 -0.01048160293532086    2    1   25    4
 -0.06747661646952993    2    1   25   10
 -0.1545383156049288    2    1   25   17
 0.08182813877627129    2    1   25   18
 0.04665837900374418    2    1   26    7
 0.07101490891901817    2    1   26   13
 0.1480772013454013    2    1   26   22
 0.04665837900374418    2    1   27    6
 0.07101490891901817    2    1   27   12
 0.1480772013454013    2    1   27   21
 -0.0858951545477027    2    1   28    1
 0.1435560055556326    2    1   28    3
 0.1334389326621087    2    1   28    5
 -0.1725722841731974    2    1   28   11
 -0.01218217654059436    2    1   28   14
 0.07944305508253613    2    1   28   25
 2.30287219648555    2    2    1    1
 2.303811230760575    2    2    2    2
 -0.1988228611658083    2    2    3    1
 0.8382231954672389    2    2    3    3
 -0.1852066405258563    2    2    4    2
 0.6656068481650311    2    2    4    4
 0.07255804641141592    2    2    5    1
 0.09739618085720557    2    2    5    3
 0.6943307712652499    2    2    5    5
 0.6848759125657673    2    2    6    6
 0.6848759125657673    2    2    7    7
 0.616396199563194    2    2    8    8
 0.616396199563194    2    2    9    9
 -0.11631445927125    2    2   10    2
 0.1378544062072139    2    2   10    4
 0.4139439022507755    2    2   10   10
 0.01157403522973828    2    2   11    1
 -0.1044410207867742    2    2   11    3
 -0.164441745664503    2    2   11    5
 0.4928336534964253    2    2   11   11
 0.2370784941758366    2    2   12    6
 0.588869902156548    2    2   12   12
 0.2370784941758366    2    2   13    7
 0.588869902156548    2    2   13   13
 -0.1634494105970165    2    2   14    1
 0.1369646581362649    2    2   14    3
 -0.1594895764231652    2    2   14    5
 -0.008918534474182508    2    2   14   11
 0.5746529772383706    2    2   14   14
 -0.2647818351745868    2    2   15    8
 0.634415678942067    2    2   15   15
 -0.2647818351745868    2    2   16    9
 0.634415678942067    2    2   16   16
 -0.004087157998090421    2    2   17    2
 -0.1070886891128652    2    2   17    4
 0.09802927363116376    2    2   17   10
 0.7709582916731426    2    2   17   17
 0.1681143615432305    2    2   18    2
 -0.1453386738739652    2    2   18    4
 -0.162789588204996    2    2   18   10
 -0.1217077145411787    2    2   18   17
 0.591989785211082    2    2   18   18
 0.5986753629908632    2    2   19   19
 0.5986753629908632    2    2   20   20
 -0.01550861986656514    2    2   21    6
 -0.03416858896215821    2    2   21   12
 0.6440961848645851    2    2   21   21
 -0.01550861986656514    2    2   22    7
 -0.03416858896215821    2    2   22   13
 0.6440961848645851    2    2   22   22
 0.5895889358140506    2    2   23   23
 0.5895889358140506    2    2   24   24
 0.02767481247282635    2    2   25    1
 -0.01122302938581762    2    2   25    3
 0.01088367313065828    2    2   25    5
 -0.04479596559657192    2    2   25   11
 0.01345013543077458    2    2   25   14
 0.6339659927708832    2    2   25   25
 0.04587261079751061    2    2   26    8
 -0.09771510679973522    2    2   26   15
 0.6063630513108124    2    2   26   26
 0.04587261079751061    2    2   27    9
 -0.09771510679973522    2    2   27   16
 0.6063630513108124    2    2   27   27
 -0.06774038088512342    2    2   28    2
 -0.0316509689469253    2    2   28    4
 0.02242303281183309    2    2   28   10
 0.2433642508564099    2    2   28   17
 -0.1503163984655189    2    2   28   18
 0.8055019018059455    2    2   28   28
 -0.1986613998460494    3    1    1    1
 -0.1988228611658084    3    1    2    2
 0.03629499690625507    3    1    3    1
 0.005900693911957328    3    1    3    3
 0.02522959155176977    3    1    4    2
 -0.01313137014414021    3    1    4    4
 -0.002499207543035884    3    1    5    1
 0.009054615923943504    3    1    5    3
 -0.008294086959678378    3    1    5    5
 4.52594014205168e-05    3    1    6    6
 4.52594014205168e-05    3    1    7    7
 -0.004248502051817707    3    1    8    8
 -0.004248502051817707    3    1    9    9
 0.0198354085007068    3    1   10    2
 -0.00344272000594558    3    1   10    4
 -0.002795103547156441    3    1   10   10
 -0.008461015213689967    3    1   11    1
 -0.002688683765758939    3    1   11    3
 0.0004592653111796448    3    1   11    5
 0.0003836849949229773    3    1   11   11
 -0.002990162155632027    3    1   12    6
 -0.003517698468928097    3    1   12   12
 -0.002990162155632027    3    1   13    7
 -0.003517698468928097    3    1   13   13
 0.02172234764144245    3    1   14    1
 -0.003915787382068034    3    1   14    3
 0.01098536500722411    3    1   14    5
 -0.005447276967554505    3    1   14   11
 -0.00971706757038128    3    1   14   14
 0.005634756168773039    3    1   15    8
 -0.008026075759612634    3    1   15   15
 0.005634756168773039    3    1   16    9
 -0.008026075759612634    3    1   16   16
 0.0128845172974545    3    1   17    2
 0.01016698393804653    3    1   17    4
 0.002947847717071728    3    1   17   10
 -0.01093870388419385    3    1   17   17
 -0.02915525010390293    3    1   18    2
 0.005000458427331526    3    1   18    4
 0.002163504848980146    3    1   18   10
 -0.003083745050571214    3    1   18   17
 -0.002231534088406077    3    1   18   18
 0.003066331874141798    3    1   19   19
 0.003066331874141807    3    1   20   20
 0.009232482261931017    3    1   21    6
 0.006349105568786948    3    1   21   12
 -0.0001765961761997603    3    1   21   21
 0.009232482261931017    3    1   22    7
 0.006349105568786948    3    1   22   13
 -0.0001765961761997603    3    1   22   22
 0.0008709967782552768    3    1   23   23
 0.0008709967782552605    3    1   24   24
 -0.006998512810194011    3    1   25    1
 0.006331299345739514    3    1   25    3
 0.008280975854912418    3    1   25    5
 -0.003924689162136312    3    1   25   11
 -0.001981153347059429    3    1   25   14
 -0.0007074739765514952    3    1   25   25
 0.003726427145651225    3    1   26    8
 -0.001636760031236737    3    1   26   15
 -0.0007072601671731071    3    1   26   26
 0.003726427145651225    3    1   27    9
 -0.001636760031236737    3    1   27   16
 -0.0007072601671731071    3    1   27   27
 0.02393123494491512    3    1   28    2
 0.0003879536184018725    3    1   28    4
 0.0007014439597491516    3    1   28   10
 -0.003340998499693763    3    1   28   17
 -0.00150503616693374    3    1   28   18
 -0.006184229797647016    3    1   28   28
 -0.2090957915535589    3    2    2    1
 0.03590343731852787    3    2    3    2
 0.02556626358779082    3    2    4    1
 -0.00883583894327322    3    2    4    3
 -0.003229781705171722    3    2    5    2
 0.01554422322070922    3    2    5    4
 -0.008511710039357485    3    2    8    7
 -0.008511710039357485    3    2    9    6
 0.01978628125726858    3    2   10    1
 -0.004738749562666207    3    2   10    3
 0.002176692708053961    3    2   10    5
 -0.007961389714811494    3    2   11    2
 -0.002419386531253721    3    2   11    4
 -0.002780100340189162    3    2   11   10
 -0.006184034374444594    3    2   12    9
 -0.006184034374444594    3    2   13    8
 0.02201252334678245    3    2   14    2
 -0.01313963852760987    3    2   14    4
 -0.006116925312439373    3    2   14   10
 0.008243276212265362    3    2   15    7
 0.01071131126472982    3    2   15   13
 0.008243276212265362    3    2   16    6
 0.01071131126472982    3    2   16   12
 0.0121010024721694    3    2   17    1
 -0.0007491684163198405    3    2   17    3
 -0.01319148686786414    3    2   17    5
 0.00611048149029801    3    2   17   11
 0.01155076289902402    3    2   17   14
 -0.02899536148377588    3    2   18    1
 0.005963398569171626    3    2   18    3
 -0.003079134823396812    3    2   18    5
 5.262452518437394e-05    3    2   18   11
 0.007263688288495359    3    2   18   14
 0.008193591757352545    3    2   21    9
 -0.007170239646406605    3    2   21   16
 0.008193591757352545    3    2   22    8
 -0.007170239646406605    3    2   22   15
 -0.004361114006036003    3    2   23   20
 -0.004361114006036008    3    2   24   19
 -0.007001526160766192    3    2   25    2
 -0.002473753513247874    3    2   25    4
 0.002372201321831592    3    2   25   10
 0.009586448410377767    3    2   25   17
 -0.003505037970921901    3    2   25   18
 0.001429039790553106    3    2   26    7
 -0.000783652505480242    3    2   26   13
 -0.004808277146100302    3    2   26   22
 0.001429039790553106    3    2   27    6
 -0.000783652505480242    3    2   27   12
 -0.004808277146100302    3    2   27   21
 0.02312104104323042    3    2   28    1
 -0.003167758288863406    3    2   28    3
 -0.003359224801149524    3    2   28    5
 0.005887854726823846    3    2   28   11
 0.002191107656936475    3    2   28   14
 -0.0002102637750160287    3    2   28   25
 0.8382994029722073    3    3    1    1
 0.8382231954672388    3    3    2    2
 0.005900693911957355    3    3    3    1
 0.8187268626931767    3    3    3    3
 -0.02180915205740546    3    3    4    2
 0.5198770300342346    3    3    4    4
 0.03115421797890464    3    3    5    1
 0.1430565014908821    3    3    5    3
 0.567633472096552    3    3    5    5
 0.6327381636695639    3    3    6    6
 0.6327381636695639    3    3    7    7
 0.5300190291206838    3    3    8    8
 0.5300190291206838    3    3    9    9
 -0.002647873334460454    3    3   10    2
 0.09869662228174711    3    3   10    4
 0.3723271072911564    3    3   10   10
 -0.01831667800780648    3    3   11    1
 -0.08961835111642714    3    3   11    3
 -0.1303158034395288    3    3   11    5
 0.4688370527663724    3    3   11   11
 0.1600079453879329    3    3   12    6
 0.5098466675336858    3    3   12   12
 0.1600079453879329    3    3   13    7
 0.5098466675336858    3    3   13   13
 -0.01878922331698001    3    3   14    1
 0.08271572266212072    3    3   14    3
 -0.05303258057190126    3    3   14    5
 -0.06069701034546082    3    3   14   11
 0.4705260517462614    3    3   14   14
 -0.1644916620887016    3    3   15    8
 0.5024117933559999    3    3   15   15
 -0.1644916620887016    3    3   16    9
 0.5024117933559999    3    3   16   16
 0.03277387854583934    3    3   17    2
 -0.01087923222940608    3    3   17    4
 0.1043347369690508    3    3   17   10
 0.6042300224896255    3    3   17   17
 9.284939070512631e-05    3    3   18    2
 -0.08378023633857613    3    3   18    4
 -0.1190486790466825    3    3   18   10
 -0.1095808481463495    3    3   18   17
 0.5248380935989834    3    3   18   18
 0.6005276891598351    3    3   19   19
 0.6005276891598352    3    3   20   20
 0.07951811273354049    3    3   21    6
 0.02619223675176151    3    3   21   12
 0.6151568547323559    3    3   21   21
 0.07951811273354049    3    3   22    7
 0.02619223675176151    3    3   22   13
 0.6151568547323559    3    3   22   22
 0.5651808236886144    3    3   23   23
 0.5651808236886142    3    3   24   24
 -0.002639710216836725    3    3   25    1
 0.05270875770560193    3    3   25    3
 0.0744965778261671    3    3   25    5
 -0.06720025027596289    3    3   25   11
 0.0006690239767133226    3    3   25   14
 0.58779480826353    3    3   25   25
 0.0639738205806889    3    3   26    8
 -0.08520425801151107    3    3   26   15
 0.5571610962079687    3    3   26   26
 0.0639738205806889    3    3   27    9
 -0.08520425801151107    3    3   27   16
 0.5571610962079687    3    3   27   27
 0.02981473184411738    3    3   28    2
 -0.02170039800541696    3    3   28    4
 0.01314618321052773    3    3   28   10
 0.1496182109400461    3    3   28   17
 -0.1262447248697631    3    3   28   18
 0.6454579753593032    3    3   28   28
 -0.1772414683374365    4    1    2    1
 0.02556626358779083    4    1    3    2
 0.02872135729443971    4    1    4    1
 -0.003645025606616119    4    1    4    3
 -0.01536602436018784    4    1    5    2
 -0.003988645193829909    4    1    5    4
 -0.001636617749297015    4    1    8    7
 -0.001636617749297015    4    1    9    6
 0.01623149296629207    4    1   10    1
 -0.00558569315344961    4    1   10    3
 -8.013923874585899e-05    4    1   10    5
 0.002451915544746669    4    1   11    2
 -0.0003617440684357609    4    1   11    4
 0.003748967800237879    4    1   11   10
 -0.004811563006865662    4    1   12    9
 -0.004811563006865662    4    1   13    8
 0.02584774668562378    4    1   14    2
 -0.001934329816393576    4    1   14    4
 -0.001461085538159804    4    1   14   10
 0.004914223896913098    4    1   15    7
 0.005099122203366894    4    1   15   13
 0.004914223896913098    4    1   16    6
 0.005099122203366894    4    1   16   12
 -0.006557594137498443    4    1   17    1
 -0.007613427470007556    4    1   17    3
 -0.001861365640776264    4    1   17    5
 0.00491073113105798    4    1   17   11
 -0.003888305565422817    4    1   17   14
 -0.0221479231755005    4    1   18    1
 0.009193878598974201    4    1   18    3
 0.00150033491525335    4    1   18    5
 -0.003327999981309913    4    1   18   11
 0.003016300419104451    4    1   18   14
 -0.002335866201130597    4    1   21    9
 -8.091252787820324e-05    4    1   21   16
 -0.002335866201130597    4    1   22    8
 -8.091252787820324e-05    4    1   22   15
 0.002061192413681454    4    1   23   20
 0.002061192413681437    4    1   24   19
 -0.001313042781092371    4    1   25    2
 0.002503795319901022    4    1   25    4
 -1.594098042203662e-05    4    1   25   10
 -0.002163212579297276    4    1   25   17
 -0.000650495448009368    4    1   25   18
 -0.004980325681053085    4    1   26    7
 -0.003893642746632989    4    1   26   13
 0.004323712780821653    4    1   26   22
 -0.004980325681053085    4    1   27    6
 -0.003893642746632989    4    1   27   12
 0.004323712780821653    4    1   27   21
 0.002086612892335475    4    1   28    1
 -0.01067825683907967    4    1   28    3
 -0.009260741024561833    4    1   28    5
 0.006692498262310146    4    1   28   11
 5.527290001872928e-06    4    1   28   14
 0.00530973827170777    4    1   28   25
 -0.185082848409875    4    2    1    1
 -0.1852066405258563    4    2    2    2
 0.02522959155176977    4    2    3    1
 -0.02180915205740547    4    2    3    3
 0.02900005514818003    4    2    4    2
 -0.003079173765666531    4    2    4    4
 -0.01591778499142139    4    2    5    1
 -0.007714779718099564    4    2    5    3
 -0.004047783689174701    4    2    5    5
 -0.008579414156045548    4    2    6    6
 -0.008579414156045548    4    2    7    7
 -0.004735920214907613    4    2    8    8
 -0.004735920214907613    4    2    9    9
 0.01621406626529464    4    2   10    2
 -0.004588361540859408    4    2   10    4
 -0.003110403323792173    4    2   10   10
 0.002837485495111731    4    2   11    1
 0.007046144062110567    4    2   11    3
 0.006384804033449738    4    2   11    5
 -0.005924617650626895    4    2   11   11
 -0.007521187428921283    4    2   12    6
 -0.00902090148589153    4    2   12   12
 -0.007521187428921283    4    2   13    7
 -0.00902090148589153    4    2   13   13
 0.02604330933275248    4    2   14    1
 -0.005976455049789988    4    2   14    3
 -0.0007490949199022384    4    2   14    5
 0.002035208054947325    4    2   14   11
 -0.003808940311246658    4    2   14   14
 0.00665943173133868    4    2   15    8
 -0.009161752770743851    4    2   15   15
 0.00665943173133868    4    2   16    9
 -0.009161752770743851    4    2   16   16
 -0.007137277653477531    4    2   17    2
 -0.003429295393439691    4    2   17    4
 -0.004759783641551928    4    2   17   10
 -0.009238447785174977    4    2   17   17
 -0.02205613534141026    4    2   18    2
 0.005724614201155481    4    2   18    4
 0.006007596443228816    4    2   18   10
 0.007436187632486807    4    2   18   17
 -0.01015929894807347    4    2   18   18
 -0.003663218000317292    4    2   19   19
 -0.003663218000317295    4    2   20   20
 -0.003409766029890893    4    2   21    6
 -0.0002933942807027832    4    2   21   12
 -0.003098583741964978    4    2   21   21
 -0.003409766029890893    4    2   22    7
 -0.0002933942807027832    4    2   22   13
 -0.003098583741964978    4    2   22   22
 -0.002103280714584903    4    2   23   23
 -0.002103280714584912    4    2   24   24
 -0.001318826640548764    4    2   25    1
 -0.001320742893524696    4    2   25    3
 -0.004180029919707521    4    2   25    5
 0.0005510845920332369    4    2   25   11
 0.001600047532058366    4    2   25   14
 -0.003083884199544598    4    2   25   25
 -0.006381941714872007    4    2   26    8
 0.006113216881547986    4    2   26   15
 -0.00234382424368557    4    2   26   26
 -0.006381941714872007    4    2   27    9
 0.006113216881547986    4    2   27   16
 -0.00234382424368557    4    2   27   27
 0.001500826057036701    4    2   28    2
 0.0008200876158959348    4    2   28    4
 -0.005643749424568716    4    2   28   10
 -0.01646996534188748    4    2   28   17
 0.01028324929068362    4    2   28   18
 -0.01896003698143199    4    2   28   28
 0.1679869195386596    4    3    2    1
 -0.008835838943273213    4    3    3    2
 -0.003645025606616106    4    3    4    1
 0.05406307389056775    4    3    4    3
 -0.002072426800532693    4    3    5    2
 -0.09148481001121699    4    3    5    4
 0.08047922544922267    4    3    8    7
 0.08047922544922267    4    3    9    6
 -0.003712119575466446    4    3   10    1
 0.03251897968982581    4    3   10    3
 0.00674857440887234    4    3   10    5
 0.003226008494999656    4    3   11    2
 0.002061073610992449    4    3   11    4
 0.03514406124828945    4    3   11   10
 0.02286212769135415    4    3   12    9
 0.02286212769135415    4    3   13    8
 -0.003135265527500518    4    3   14    2
 0.04003806703033303    4    3   14    4
 0.03245601363484665    4    3   14   10
 -0.04489297675923799    4    3   15    7
 -0.06697560038274232    4    3   15   13
 -0.04489297675923799    4    3   16    6
 -0.06697560038274232    4    3   16   12
 -0.004664965206881805    4    3   17    1
 0.03481932018819631    4    3   17    3
 0.05659309650800433    4    3   17    5
 -0.0212610651214342    4    3   17   11
 -0.05279388208955333    4    3   17   14
 0.005652518510795831    4    3   18    1
 -0.03875585335391497    4    3   18    3
 -0.00946079878589326    4    3   18    5
 0.009636927166516979    4    3   18   11
 -0.04332495256601879    4    3   18   14
 -0.05043560681150044    4    3   21    9
 0.02276459619933519    4    3   21   16
 -0.05043560681150044    4    3   22    8
 0.02276459619933519    4    3   22   15
 0.08292392054557386    4    3   23   20
 0.08292392054557393    4    3   24   19
 0.0005687339336176268    4    3   25    2
 -0.005745377090183781    4    3   25    4
 -0.02642595250835466    4    3   25   10
 -0.05353184062208146    4    3   25   17
 0.02672840075019993    4    3   25   18
 0.006885681220752601    4    3   26    7
 0.01604773358090907    4    3   26   13
 0.07143303836411749    4    3   26   22
 0.006885681220752601    4    3   27    6
 0.01604773358090907    4    3   27   12
 0.07143303836411749    4    3   27   21
 -0.006834021923488698    4    3   28    1
 0.01891827036823074    4    3   28    3
 0.01434306564128436    4    3   28    5
 -0.04045906737781592    4    3   28   11
 0.003575194469451301    4    3   28   14
 0.05362748817997032    4    3   28   25
 0.6655373075570343    4    4    1    1
 0.665606848165031    4    4    2    2
 -0.01313137014414022    4    4    3    1
 0.5198770300342346    4    4    3    3
 -0.003079173765666527    4    4    4    2
 0.5360401161058096    4    4    4    4
 -0.006256722251912659    4    4    5    1
 0.005544242917340368    4    4    5    3
 0.5403158518976665    4    4    5    5
 0.4925242251718669    4    4    6    6
 0.4925242251718669    4    4    7    7
 0.4787158683275027    4    4    8    8
 0.4787158683275027    4    4    9    9
 -0.00554783372175148    4    4   10    2
 0.05354625384078649    4    4   10    4
 0.3674828765613082    4    4   10   10
 0.006564455197900442    4    4   11    1
 -0.0231605640418019    4    4   11    3
 -0.04929612079091793    4    4   11    5
 0.3962176880137762    4    4   11   11
 0.09050048860407359    4    4   12    6
 0.4187925032567953    4    4   12   12
 0.09050048860407359    4    4   13    7
 0.4187925032567953    4    4   13   13
 -0.001800505640599513    4    4   14    1
 0.05135597966213178    4    4   14    3
 -0.09428337176581882    4    4   14    5
 0.003240918093428339    4    4   14   11
 0.4526115020063587    4    4   14   14
 -0.1117459321768126    4    4   15    8
 0.4420955885711166    4    4   15   15
 -0.1117459321768126    4    4   16    9
 0.4420955885711166    4    4   16   16
 -0.01237491253500289    4    4   17    2
 -0.08093336048015236    4    4   17    4
 0.03824960371609173    4    4   17   10
 0.5366485848421789    4    4   17   17
 0.0091403492153388    4    4   18    2
 -0.0469208486499188    4    4   18    4
 -0.06986248035228762    4    4   18   10
 -0.03161089206313696    4    4   18   17
 0.4282634582744105    4    4   18   18
 0.48522929698975    4    4   19   19
 0.48522929698975    4    4   20   20
 -0.03264591657754415    4    4   21    6
 -0.0111592108570564    4    4   21   12
 0.5195886905364074    4    4   21   21
 -0.03264591657754415    4    4   22    7
 -0.0111592108570564    4    4   22   13
 0.5195886905364074    4    4   22   22
 0.4926699179885415    4    4   23   23
 0.4926699179885415    4    4   24   24
 0.004498393963817453    4    4   25    1
 -0.01133872979262421    4    4   25    3
 -0.02516476116819204    4    4   25    5
 -0.03928911342616971    4    4   25   11
 0.02183242933138582    4    4   25   14
 0.5124206927658964    4    4   25   25
 -0.02762579116074032    4    4   26    8
 -0.02476990477653613    4    4   26   15
 0.5115412525955528    4    4   26   26
 -0.02762579116074032    4    4   27    9
 -0.02476990477653613    4    4   27   16
 0.5115412525955528    4    4   27   27
 -0.01288484362103137    4    4   28    2
 0.006822944708151462    4    4   28    4
 -0.02981316476405416    4    4   28   10
 0.02917914312002499    4    4   28   17
 -0.03273750540046987    4    4   28   18
 0.5315561988216957    4    4   28   28
 0.07253191562255634    5    1    1    1
 0.07255804641141592    5    1    2    2
 -0.002499207543035893    5    1    3    1
 0.03115421797890464    5    1    3    3
 -0.0159177849914214    5    1    4    2
 -0.006256722251912659    5    1    4    4
 0.01772325171428794    5    1    5    1
 0.01635528578736831    5    1    5    3
 -0.00137145934022835    5    1    5    5
 0.01062455990897247    5    1    6    6
 0.01062455990897247    5    1    7    7
 0.00268354100176413    5    1    8    8
 0.00268354100176413    5    1    9    9
 -0.004351743180078229    5    1   10    2
 0.002981318269950358    5    1   10    4
 0.001697942184112506    5    1   10   10
 -0.01022156266031642    5    1   11    1
 -0.01071772363156694    5    1   11    3
 -0.007468827950280817    5    1   11    5
 0.007545519865476013    5    1   11   11
 0.007037573944449496    5    1   12    6
 0.008460220379732606    5    1   12   12
 0.007037573944449496    5    1   13    7
 0.008460220379732606    5    1   13   13
 -0.01504813540425428    5    1   14    1
 0.004332085331424606    5    1   14    3
 0.009336702683716884    5    1   14    5
 -0.00663874454182403    5    1   14   11
 -0.002800587226156962    5    1   14   14
 -0.003981344926230872    5    1   15    8
 0.0052397958223142    5    1   15   15
 -0.003981344926230872    5    1   16    9
 0.0052397958223142    5    1   16   16
 0.01907529633350819    5    1   17    2
 0.01201714509395437    5    1   17    4
 0.008125160586449605    5    1   17   10
 0.002977800304233143    5    1   17   17
 0.004208758714273476    5    1   18    2
 -0.003205114515293803    5    1   18    4
 -0.005742251220904267    5    1   18   10
 -0.01154283554523362    5    1   18   17
 0.01081786162262168    5    1   18   18
 0.006851296828966702    5    1   19   19
 0.006851296828966697    5    1   20   20
 0.01111076572679057    5    1   21    6
 0.005168947836841098    5    1   21   12
 0.00360920089614919    5    1   21   21
 0.01111076572679057    5    1   22    7
 0.005168947836841098    5    1   22   13
 0.00360920089614919    5    1   22   22
 0.003327431572829249    5    1   23   23
 0.003327431572829262    5    1   24   24
 -0.003959304694939483    5    1   25    1
 0.006310347718581793    5    1   25    3
 0.01146916493967334    5    1   25    5
 -0.003692997887514907    5    1   25   11
 -0.003555498350765491    5    1   25   14
 0.003243194113923575    5    1   25   25
 0.01069250613855992    5    1   26    8
 -0.008813774551584696    5    1   26   15
 0.002412479841041977    5    1   26   26
 0.01069250613855992    5    1   27    9
 -0.008813774551584696    5    1   27   16
 0.002412479841041977    5    1   27   27
 0.0171428486341177    5    1   28    2
 -0.0007344568706609253    5    1   28    4
 0.007458324826097398    5    1   28   10
 0.0176980080171698    5    1   28   17
 -0.0137795655733458    5    1   28   18
 0.01866700779797836    5    1   28   28
 0.05574731885894196    5    2    2    1
 -0.003229781705171728    5    2    3    2
 -0.01536602436018785    5    2    4    1
 -0.002072426800532692    5    2    4    3
 0.0165326159485994    5    2    5    2
 0.01657394188949221    5    2    5    4