 &FCI NORB=  28,NELEC=12,MS2=0,
  ORBSYM=1,1,1,1,1,1,1,1,1,1,1,1,1,1,1,1,1,1,1,1,1,1,1,1,1,1,1,1,
  ISYM=1,
 &END
 1.963907310190035    1    1    1    1
 1.96415112877249    1    1    2    2
 -0.1681887830655024    1    1    3    1
 0.6907594541058669    1    1    3    3
 -0.152281994608628    1    1    4    2
 0.5614706580970542    1    1    4    4
 0.5769679422996452    1    1    5    5
 0.5769679423001955    1    1    6    6
 0.05473327668283536    1    1    7    1
 0.07740051583617887    1    1    7    3
 0.6202187019232147    1    1    7    7
 0.6402084954236857    1    1    8    8
 0.6402084954113247    1    1    9    9
 -0.1315809531607698    1    1   10    2
 0.06648276013150273    1    1   10    4
 0.7678888306878391    1    1   10   10
 -0.0168746274459228    1    1   11    1
 -0.04756290169098769    1    1   11    3
 -0.1659245465184473    1    1   11    7
 0.4063727605584454    1    1   11   11
 0.1968805980952936    1    1   12    5
 0.4860806081998895    1    1   12   12
 0.1968805980950486    1    1   13    6
 0.4860806081992163    1    1   13   13
 -0.1272426252219204    1    1   14    1
 0.1480497265503799    1    1   14    3
 -0.07082942143027206    1    1   14    7
 -0.01381079937175483    1    1   14   11
 0.4630180063713713    1    1   14   14
 -0.1822919744641743    1    1   15    8
 0.3965981565772546    1    1   15   15
 -0.1822919744714575    1    1   16    9
 0.3965981565886436    1    1   16   16
 0.04773084179973651    1    1   17    2
 -0.115211191785083    1    1   17    4
 0.1250496229992068    1    1   17   10
 0.3432280887377754    1    1   17   17
 0.4988911249247354    1    1   18   18
 0.4988911249247354    1    1   19   19
 0.1016877731104475    1    1   20    2
 -0.1296342448026447    1    1   20    4
 -0.02475106584162126    1    1   20   10
 0.08906289578730399    1    1   20   17
 0.4209156950044234    1    1   20   20
 -0.01140655487957401    1    1   21    5
 -0.02003316730458736    1    1   21   12
 0.5361870209205002    1    1   21   21
 -0.01140655487989181    1    1   22    6
 -0.0200331673054118    1    1   22   13
 0.5361870209206219    1    1   22   22
 0.4887243001665523    1    1   23   23
 0.4887243001665524    1    1   24   24
 0.01487180263107775    1    1   25    1
 -0.0008249497977568099    1    1   25    3
 0.01897130146827934    1    1   25    7
 -0.04433835670632756    1    1   25   11
 0.0239658332937514    1    1   25   14
 0.5182814208145581    1    1   25   25
 0.07447754439784419    1    1   26    8
 -0.07357419349869877    1    1   26   15
 0.5081205256447063    1    1   26   26
 0.07447754439644208    1    1   27    9
 -0.07357419350179906    1    1   27   16
 0.5081205256456784    1    1   27   27
 -0.0289135134301052    1    1   28    2
 -0.04283212114368268    1    1   28    4
 0.2031881206354451    1    1   28   10
 0.1108674788306972    1    1   28   17
 0.007569023230849784    1    1   28   20
 0.637584549017566    1    1   28   28
 1.547469338260103    2    1    2    1
 -0.1744889168457079    2    1    3    2
 -0.1459012999231694    2    1    4    1
 0.1632323769055052    2    1    4    3
 0.0400918872432626    2    1    7    2
 -0.2055340596162192    2    1    7    4
 0.2344189420657283    2    1    8    6
 0.2344189420626503    2    1    9    5
 -0.1465943633014869    2    1   10    1
 0.2041712466545781    2    1   10    3
 0.1718048654986866    2    1   10    7
 -0.006610120747045338    2    1   11    2
 0.05175745140352789    2    1   11    4
 -0.07812294441233622    2    1   11   10
 0.1639549641935986    2    1   12    9
 0.1639549641982546    2    1   13    8
 -0.1252101311805182    2    1   14    2
 0.1208828306940459    2    1   14    4
 0.04990532565296475    2    1   14   10
 -0.09880528222522424    2    1   15    6
 -0.1495037185180879    2    1   15   13
 -0.09880528223257511    2    1   16    5
 -0.1495037185233911    2    1   16   12
 0.03912264494246409    2    1   17    1
 -0.004753709181139486    2    1   17    3
 0.1227639182522125    2    1   17    7
 -0.1129979492494606    2    1   17   11
 -0.08112820460157398    2    1   17   14
 0.09637452364662018    2    1   20    1
 -0.06731394041905683    2    1   20    3
 0.09462296960904872    2    1   20    7
 -0.04487282277309899    2    1   20   11
 -0.1337802421145133    2    1   20   14
 -0.1267756200609426    2    1   21    9
 0.04403742655084988    2    1   21   16
 -0.126775620062912    2    1   22    8
 0.04403742654714574    2    1   22   15
 0.139128155179202    2    1   23   19
 0.139128155179202    2    1   24   18
 0.01467984077250404    2    1   25    2
 -0.01037390706824084    2    1   25    4
 -0.1204869864661021    2    1   25   10
 -0.03377921938998268    2    1   25   17
 -0.01036806644885264    2    1   25   20
 0.0437980974535566    2    1   26    6
 0.06964959310873788    2    1   26   13
 0.1125064543579332    2    1   26   22
 0.04379809745426218    2    1   27    5
 0.0696495931098    2    1   27   12
 0.112506454357466    2    1   27   21
 -0.04422209366519912    2    1   28    1
 0.0740073400518873    2    1   28    3
 0.1094183983808283    2    1   28    7
 -0.137614025300229    2    1   28   11
 0.01654852430712117    2    1   28   14
 0.08945438210256869    2    1   28   25
 1.96415112877249    2    2    1    1
 1.964395137278432    2    2    2    2
 -0.168210928644264    2    2    3    1
 0.6907829065623532    2    2    3    3
 -0.1523275613565173    2    2    4    2
 0.561466583309567    2    2    4    4
 0.5769866567105247    2    2    5    5
 0.5769866567110753    2    2    6    6
 0.05477884351343115    2    2    7    1
 0.0774095527888054    2    2    7    3
 0.620206101547078    2    2    7    7
 0.6402297478801484    2    2    8    8
 0.640229747867786    2    2    9    9
 -0.1315629277226441    2    2   10    2
 0.06650637558754756    2    2   10    4
 0.7679270574144282    2    2   10   10
 -0.01690549270418716    2    2   11    1
 -0.04756562097360607    2    2   11    3
 -0.1659253643587094    2    2   11    7
 0.4063734746970431    2    2   11   11
 0.1968961954448177    2    2   12    5
 0.4860991867790324    2    2   12   12
 0.1968961954445727    2    2   13    6
 0.4860991867783591    2    2   13   13
 -0.1272759956383686    2    2   14    1
 0.1480560038667389    2    2   14    3
 -0.07081967016760463    2    2   14    7
 -0.01381770587604273    2    2   14   11
 0.463019983251258    2    2   14   14
 -0.1823060919060595    2    2   15    8
 0.3966082291717046    2    2   15   15
 -0.1823060919133429    2    2   16    9
 0.3966082291830948    2    2   16   16
 0.04776420823804557    2    2   17    2
 -0.1152037957319445    2    2   17    4
 0.1250506028657464    2    2   17   10
 0.3432208620362319    2    2   17   17
 0.4989014550730722    2    2   18   18
 0.4989014550730722    2    2   19   19
 0.1017227284338791    2    2   20    2
 -0.1296316065965612    2    2   20    4
 -0.02476385477128647    2    2   20   10
 0.08905760013529793    2    2   20   17
 0.4209162090255111    2    2   20   20
 -0.01140159373178475    2    2   21    5
 -0.02003374145196178    2    2   21   12
 0.5361846014604578    2    2   21   21
 -0.01140159373210263    2    2   22    6
 -0.02003374145278628    2    2   22   13
 0.5361846014605794    2    2   22   22
 0.4887332850657098    2    2   23   23
 0.48873328506571    2    2   24   24
 0.01486042343054639    2    2   25    1
 -0.0008384088355139602    2    2   25    3
 0.01898236152892374    2    2   25    7
 -0.04433928851913484    2    2   25   11
 0.0239541319293465    2    2   25   14
 0.5182760779861726    2    2   25   25
 0.0745003696597162    2    2   26    8
 -0.07358557289008595    2    2   26   15
 0.5081253405146801    2    2   26   26
 0.07450036965831382    2    2   27    9
 -0.07358557289318711    2    2   27   16
 0.5081253405156527    2    2   27   27
 -0.02887092848625563    2    2   28    2
 -0.04283834902863871    2    2   28    4
 0.2032146999476752    2    2   28   10
 0.1108760081420607    2    2   28   17
 0.007570042224199684    2    2   28   20
 0.6376021816215299    2    2   28   28
 -0.1681887830655025    3    1    1    1
 -0.168210928644264    3    1    2    2
 0.02891522274308608    3    1    3    1
 0.0007944506154327717    3    1    3    3
 0.02154430456375101    3    1    4    2
 -0.009356954622380169    3    1    4    4
 -0.0009053680002840409    3    1    5    5
 -0.0009053680002404831    3    1    6    6
 -0.002417558412124698    3    1    7    1
 0.006688779551788901    3    1    7    3
 -0.006221180970639128    3    1    7    7
 -0.005945194557611684    3    1    8    8
 -0.005945194557343157    3    1    9    9
 0.02814889558845548    3    1   10    2
 0.0008868255641686586    3    1   10    4
 -0.004814843700763081    3    1   10   10
 -0.001931522910625249    3    1   11    1
 -0.002261657640133914    3    1   11    3
 0.002606361913667555    3    1   11    7
 -0.001894325804228993    3    1   11   11
 -0.002582227368699692    3    1   12    5
 -0.002907173997453067    3    1   12   12
 -0.002582227368681402    3    1   13    6
 -0.00290717399744008    3    1   13   13
 0.01868928597342156    3    1   14    1
 -0.00288961671000122    3    1   14    3
 0.006660214727154491    3    1   14    7
 -0.004273784781948404    3    1   14   11
 -0.003670936042661325    3    1   14   14
 0.004413307674734972    3    1   15    8
 -0.003388668638431418    3    1   15   15
 0.00441330767481605    3    1   16    9
 -0.003388668638711217    3    1   16   16
 -0.003742296212778593    3    1   17    2
 0.005161075469547979    3    1   17    4
 -0.001617560857999951    3    1   17   10
 -0.004302016002550293    3    1   17   17
 0.001956151774606086    3    1   18   18
 0.00195615177460607    3    1   19   19
 -0.01312068490367458    3    1   20    2
 0.006138376510636975    3    1   20    4
 -0.001238966549412149    3    1   20   10
 -0.003972990547615786    3    1   20   17
 -0.004275117583839577    3    1   20   20
 0.005896272033795477    3    1   21    5
 0.004180287999681467    3    1   21   12
 -8.10272083914546e-05    3    1   21   21
 0.005896272033807403    3    1   22    6
 0.004180287999684616    3    1   22   13
 -8.10272084479937e-05    3    1   22   22
 0.0004989892774713139    3    1   23   23
 0.0004989892774713458    3    1   24   24
 -0.003108624934719458    3    1   25    1
 0.003258069586332773    3    1   25    3
 0.005414034330844028    3    1   25    7
 -0.002634919985582772    3    1   25   11
 4.998384525008973e-05    3    1   25   14
 -0.000249229656450356    3    1   25   25
 0.001299203350508457    3    1   26    8
 0.0005007186375389249    3    1   26   15
 -0.0009177392207160069    3    1   26   26
 0.001299203350492517    3    1   27    9
 0.0005007186375232877    3    1   27   16
 -0.0009177392207047265    3    1   27   27
 0.01264544313843459    3    1   28    2
 0.001086226650734761    3    1   28    4
 -0.003402662034002797    3    1   28   10
 -0.002428659493142325    3    1   28   17
 -0.002577871650825381    3    1   28   20
 -0.006477045271256423    3    1   28   28
 -0.174488916845708    3    2    2    1
 0.02872621269645539    3    2    3    2
 0.02172212583228123    3    2    4    1
 -0.007573627117483634    3    2    4    3
 -0.002890569720721929    3    2    7    2
 0.01036225263330382    3    2    7    4
 -0.00741903295385082    3    2    8    6
 -0.007419032953740886    3    2    9    5
 0.02772774197252787    3    2   10    1
 -0.005051150787854918    3    2   10    3
 -0.005215273414552836    3    2   10    7
 -0.001602477880520724    3    2   11    2
 -0.003443535544316823    3    2   11    4
 0.002875481863840501    3    2   11   10
 -0.006417880858302289    3    2   12    9
 -0.006417880858476773    3    2   13    8
 0.01875421315094318    3    2   14    2
 -0.007510299869068314    3    2   14    4
 -0.0008455137378531532    3    2   14   10
 0.004004078910301421    3    2   15    6
 0.005730868117733857    3    2   15   13
 0.004004078910541901    3    2   16    5
 0.005730868117944308    3    2   16   12
 -0.003983786982517721    3    2   17    1
 0.002177003279820752    3    2   17    3
 -0.00621337302220186    3    2   17    7
 0.00489995568630382    3    2   17   11
 0.004959583968739173    3    2   17   14
 -0.01327151882725193    3    2   20    1
 0.003639819620720076    3    2   20    3
 -0.006283656682123684    3    2   20    7
 0.003287435965665939    3    2   20   11
 0.006234305629879072    3    2   20   14
 0.006326304934525229    3    2   21    9
 -0.003015578524841111    3    2   21   16
 0.006326304934646152    3    2   22    8
 -0.003015578524656511    3    2   22   15
 -0.002491549308104217    3    2   23   19
 -0.002491549308104231    3    2   24   18
 -0.003130322045608596    3    2   25    2
 -0.001486645740875428    3    2   25    4
 0.005435575785380519    3    2   25   10
 0.002424983500794044    3    2   25   17
 0.001106525025970873    3    2   25   20
 7.772409635807098e-05    3    2   26    6
 -0.001497768976209853    3    2   26   13
 -0.00230160645096036    3    2   26   22
 7.772409632761882e-05    3    2   27    5
 -0.001497768976249386    3    2   27   12
 -0.002301606450924696    3    2   27   21
 0.01217241036009914    3    2   28    1
 -0.001695305980666068    3    2   28    3
 -0.003899109708107917    3    2   28    7
 0.005070586520252629    3    2   28   11
 0.001034189497855403    3    2   28   14
 -0.0004292350855855821    3    2   28   25
 0.6907594541058669    3    3    1    1
 0.6907829065623532    3    3    2    2
 0.0007944506154327605    3    3    3    1
 0.6378532325888229    3    3    3    3
 -0.01530992519934596    3    3    4    2
 0.4396548572739972    3    3    4    4
 0.5191643374382356    3    3    5    5
 0.5191643374391569    3    3    6    6
 0.02305779284669808    3    3    7    1
 0.1130365215897898    3    3    7    3
 0.4989353138649236    3    3    7    7
 0.5133570878063889    3    3    8    8
 0.5133570877992635    3    3    9    9
 0.01594792663157515    3    3   10    2
 0.06980501651166317    3    3   10    4
 0.6201357047689638    3    3   10   10
 -0.01516976431399557    3    3   11    1
 -0.04328457755670635    3    3   11    3
 -0.1082126079204144    3    3   11    7
 0.3622295552819511    3    3   11   11
 0.1279245544321836    3    3   12    5
 0.4174896645473074    3    3   12   12
 0.1279245544321458    3    3   13    6
 0.4174896645469078    3    3   13   13
 -0.008923402973178616    3    3   14    1
 0.09218001326930444    3    3   14    3
 -0.006926497582307674    3    3   14    7
 -0.05374105808655689    3    3   14   11
 0.4091833738622999    3    3   14   14
 -0.1011627246770651    3    3   15    8
 0.3380135905664533    3    3   15   15
 -0.1011627246822939    3    3   16    9
 0.3380135905727416    3    3   16   16
 0.01430377310067999    3    3   17    2
 -0.05604421718468599    3    3   17    4
 0.08155864635043944    3    3   17   10
 0.284516535231825    3    3   17   17
 0.4946986218519741    3    3   18   18
 0.4946986218519741    3    3   19   19
 0.01183366985394984    3    3   20    2
 -0.05239458817746145    3    3   20    4
 -0.02930378861746378    3    3   20   10
 0.04341092240636554    3    3   20   17
 0.3630103753756911    3    3   20   20
 0.05639509820956191    3    3   21    5
 0.02277141648418307    3    3   21   12
 0.5060115767462174    3    3   21   21
 0.05639509820947358    3    3   22    6
 0.02277141648357147    3    3   22   13
 0.5060115767456946    3    3   22   22
 0.4651762681685895    3    3   23   23
 0.4651762681685897    3    3   24   24
 -0.0006509312557813514    3    3   25    1
 0.03244195997856927    3    3   25    3
 0.06088128289093592    3    3   25    7
 -0.05582014354869129    3    3   25   11
 0.02179102717230038    3    3   25   14
 0.4761952486024803    3    3   25   25
 0.06815027008829476    3    3   26    8
 -0.05099367830453295    3    3   26   15
 0.4582471955756019    3    3   26   26
 0.0681502700871025    3    3   27    9
 -0.05099367830701584    3    3   27   16
 0.4582471955764397    3    3   27   27
 0.02101680182550328    3    3   28    2
 -0.02739101054444785    3    3   28    4
 0.1149895137057256    3    3   28   10
 0.0659965955780152    3    3   28   17
 -0.02042780632680257    3    3   28   20
 0.4997946888622983    3    3   28   28
 -0.1459012999231694    4    1    2    1
 0.02172212583228123    4    1    3    2
 0.02285087265158351    4    1    4    1
 -0.002330051367442519    4    1    4    3
 -0.01169210408720922    4    1    7    2
 -0.003851963683629445    4    1    7    4
 -0.001815605996515587    4    1    8    6
 -0.001815605996386195    4    1    9    5
 0.01298024725341078    4    1   10    1
 -0.01024878680728635    4    1   10    3
 -0.002846526713254158    4    1   10    7
 0.005713603575325336    4    1   11    2
 -0.0002835330551708334    4    1   11    4
 0.005061151910728471    4    1   11   10
 -0.004312144505262756    4    1   12    9
 -0.004312144505348206    4    1   13    8
 0.01824147420477658    4    1   14    2
 -0.001426802537376053    4    1   14    4
 -0.005074563409579499    4    1   14   10
 0.002920340383817331    4    1   15    6
 0.002254017755190818    4    1   15   13
 0.002920340383866561    4    1   16    5
 0.002254017755328334    4    1   16   12
 -0.009462403917746706    4    1   17    1
 -0.001129411408065695    4    1   17    3
 -0.0004625912935088613    4    1   17    7
 -0.000245336249641215    4    1   17   11
 -0.001563876056361367    4    1   17   14
 -0.01540107617371123    4    1   20    1
 0.002282837626145263    4    1   20    3
 0.0007338897475056757    4    1   20    7
 -3.082257907279182e-06    4    1   20   11
 3.456564071757605e-05    4    1   20   14
 -0.00195997683811024    4    1   21    9
 -0.0003719935240384253    4    1   21   16
 -0.001959976838070359    4    1   22    8
 -0.0003719935241206799    4    1   22   15
 0.001802212426820569    4    1   23   19
 0.001802212426820556    4    1   24   18
 -0.0002698715973834152    4    1   25    2
 0.001639484219949416    4    1   25    4
 -0.001454270982295643    4    1   25   10
 -0.001047911537747262    4    1   25   17
 -0.001087893591215056    4    1   25   20
 -0.004138060628446679    4    1   26    6
 -0.00314087262832355    4    1   26   13
 0.003575521611451222    4    1   26   22
 -0.004138060628470911    4    1   27    5
 -0.003140872628357234    4    1   27   12
 0.003575521611422158    4    1   27   21
 -0.001710551410955864    4    1   28    1
 -0.005971938321462085    4    1   28    3
 -0.007650324241325081    4    1   28    7
 0.004404312391966398    4    1   28   11
 -0.001039983513079674    4    1   28   14
 0.00353932799099114    4    1   28   25
 -0.1522819946086281    4    2    1    1
 -0.1523275613565173    4    2    2    2
 0.02154430456375101    4    2    3    1
 -0.01530992519934596    4    2    3    3
 0.02303331046136494    4    2    4    2
 -0.002044394420010188    4    2    4    4
 -0.006215017179089992    4    2    5    5
 -0.006215017179132514    4    2    6    6
 -0.01212880553559983    4    2    7    1
 -0.006784406634783944    4    2    7    3
 -0.003697733876970135    4    2    7    7
 -0.006327201402535843    4    2    8    8
 -0.006327201402169204    4    2    9    9
 0.01257816595247909    4    2   10    2
 -0.006012667512421284    4    2   10    4
 -0.01831643976095647    4    2   10   10
 0.006015754934871096    4    2   11    1
 0.004037019062723459    4    2   11    3
 0.00471642993275505    4    2   11    7
 -0.003661965671963763    4    2   11   11
 -0.005578614100135156    4    2   12    5
 -0.006572909949786656    4    2   12   12
 -0.00557861410013902    4    2   13    6
 -0.00657290994976863    4    2   13   13
 0.01829783753761041    4    2   14    1
 -0.005985632140338058    4    2   14    3
 -0.002456864511134193    4    2   14    7
 0.002380918913342177    4    2   14   11
 -0.00381172399472338    4    2   14   14
 0.004755289953936629    4    2   15    8
 -0.003478986224255218    4    2   15   15
 0.004755289954001003    4    2   16    9
 -0.003478986224547993    4    2   16   16
 -0.009700984037963864    4    2   17    2
 0.0001106121841578315    4    2   17    4
 -0.002896183286624065    4    2   17   10
 -0.0003000267853283478    4    2   17   17
 -0.002669748410462071    4    2   18   18
 -0.002669748410462093    4    2   19   19
 -0.01555511906321592    4    2   20    2
 0.001726436791338095    4    2   20    4
 0.002990510399033639    4    2   20   10
 -0.0001681743680245702    4    2   20   17
 -0.001799527051204442    4    2   20   20
 -0.002723308345643024    4    2   21    5
 -0.0004144215510720886    4    2   21   12
 -0.002245999939324633    4    2   21   21
 -0.00272330834562321    4    2   22    6
 -0.0004144215510406375    4    2   22   13
 -0.002245999939300128    4    2   22   22
 -0.00131950974398265    4    2   23   23
 -0.001319509743982599    4    2   24   24
 -0.0003031727793656928    4    2   25    1
 -0.001545370966607218    4    2   25    3
 -0.003722665035957031    4    2   25    7
 0.001044637476157641    4    2   25   11
 0.0002690102812994091    4    2   25   14
 -0.001921641400933759    4    2   25   25
 -0.006403665413436065    4    2   26    8
 0.003282739474490756    4    2   26   15
 -0.001960754437166395    4    2   26   26
 -0.006403665413360588    4    2   27    9
 0.003282739474720864    4    2   27   16
 -0.001960754437240252    4    2   27   27
 -0.002173214299237022    4    2   28    2
 0.001376416429315342    4    2   28    4
 -0.01428682074369025    4    2   28   10
 -0.004696737317830255    4    2   28   17
 -0.0006653731725173565    4    2   28   20
 -0.01168093622192993    4    2   28   28
 0.1632323769055053    4    3    2    1
 -0.007573627117483644    4    3    3    2
 -0.002330051367442525    4    3    4    1
 0.06391399163419537    4    3    4    3
 -0.003675017155822369    4    3    7    2
 -0.09301855759587621    4    3    7    4
 0.08955678948910539    4    3    8    6
 0.08955678948867771    4    3    9    5
 -0.009593044054048754    4    3   10    1
 0.05256732425259918    4    3   10    3
 0.05434755217448501    4    3   10    7
 0.003266583611366284    4    3   11    2
 0.008847045834480014    4    3   11    4
 -0.001978301847121244    4    3   11   10
 0.03844915734127434    4    3   12    9
 0.03844915734293365    4    3   13    8
 -0.003162073050359772    4    3   14    2
 0.03072187813071508    4    3   14    4
 0.008585243685224014    4    3   14   10
 -0.01856364688805366    4    3   15    6
 -0.05482372709520287    4    3   15   13
 -0.01856364689084882    4    3   16    5
 -0.05482372709643517    4    3   16   12
 -0.001582517156660584    4    3   17    1
 -0.00337651788170219    4    3   17    3
 0.03375866452468231    4    3   17    7
 -0.05073120030575367    4    3   17   11
 -0.03646627171492522    4    3   17   14
 0.001114603139901536    4    3   20    1
 -0.01331833617914987    4    3   20    3
 0.0261964577455669    4    3   20    7
 -0.009919180661582526    4    3   20   11
 -0.05543800633696119    4    3   20   14
 -0.05539809926433537    4    3   21    9
 0.008216649993038609    4    3   21   16
 -0.055398099264667    4    3   22    8
 0.008216649991272716    4    3   22   15
 0.07845094899378915    4    3   23   19
 0.07845094899378924    4    3   24   18
 0.0003308385013748859    4    3   25    2
 -0.003030132990431785    4    3   25    4
 -0.05312487259123977    4    3   25   10
 -0.01459870871532415    4    3   25   17
 -0.007464869088449963    4    3   25   20
 0.003437602083486733    4    3   26    6
 0.01799240354344518    4    3   26   13
 0.06993367407392885    4    3   26   22
 0.003437602083621014    4    3   27    5
 0.0179924035436912    4    3   27   12
 0.06993367407366625    4    3   27   21
 -0.006450115277090532    4    3   28    1
 0.008014218317471159    4    3   28    3
 0.006578446929912383    4    3   28    7
 -0.03947185164264984    4    3   28   11
 0.01007913587760179    4    3   28   14
 0.06293974350898404    4    3   28   25
 0.5614706580970543    4    4    1    1
 0.5614665833095667    4    4    2    2
 -0.009356954622380172    4    4    3    1
 0.4396548572739974    4    4    3    3
 -0.002044394420010204    4    4    4    2
 0.4554402116111034    4    4    4    4
 0.4173685676163184    4    4    5    5
 0.4173685676163176    4    4    6    6
 -0.006220036906912575    4    4    7    1
 -0.003923013913063356    4    4    7    3
 0.472166229078474    4    4    7    7
 0.4540403675066218    4    4    8    8
 0.4540403675023299    4    4    9    9
 -0.01411002304696576    4    4   10    2
 0.0009785817076857323    4    4   10    4
 0.4618534711766578    4    4   10   10
 0.004988510276058509    4    4   11    1
 -0.005010365604967997    4    4   11    3
 -0.05840491873715421    4    4   11    7
 0.3328796150330325    4    4   11   11
 0.07622928599690931    4    4   12    5
 0.3492421453056059    4    4   12   12
 0.07622928599675616    4    4   13    6
 0.3492421453053473    4    4   13   13
 -0.003088493478293314    4    4   14    1
 0.05346903592575317    4    4   14    3
 -0.05449382162461857    4    4   14    7
 0.00531265576260853    4    4   14   11
 0.3652449556717573    4    4   14   14
 -0.0692428179896688    4    4   15    8
 0.3175799823941933    4    4   15   15
 -0.06924281799389827    4    4   16    9
 0.3175799823985183    4    4   16   16
 -0.003241485705505543    4    4   17    2
 -0.06776078021834477    4    4   17    4
 0.0518713516241403    4    4   17   10
 0.3100879594575791    4    4   17   17
 0.4053443285649369    4    4   18   18
 0.4053443285649368    4    4   19   19
 0.0006666752428659889    4    4   20    2
 -0.06040871785797586    4    4   20    4
 0.001033636821446059    4    4   20   10
 0.05372446475604774    4    4   20   17
 0.3498941206625298    4    4   20   20
 -0.02860656114362613    4    4   21    5
 -0.005709693584138744    4    4   21   12
 0.4348200643577987    4    4   21   21
 -0.02860656114359887    4    4   22    6
 -0.0057096935843828    4    4   22   13
 0.4348200643580572    4    4   22   22
 0.4117775139965844    4    4   23   23
 0.4117775139965846    4    4   24   24
 0.002749511640758086    4    4   25    1
 -0.006568527104543017    4    4   25    3
 -0.02153957167303189    4    4   25    7
 -0.03198887491496714    4    4   25   11
 0.02302446464430271    4    4   25   14
 0.4268770307902567    4    4   25   25
 -0.01244409857661439    4    4   26    8
 -0.02831865979648478    4    4   26   15
 0.429588835893251    4    4   26   26
 -0.01244409857728633    4    4   27    9
 -0.02831865979625332    4    4   27   16
 0.4295888358932185    4    4   27   27
 -0.009219647067911806    4    4   28    2
 0.003292446222815064    4    4   28    4
 0.01642397021353501    4    4   28   10
 0.0338700252806011    4    4   28   17
 -0.01105051203885826    4    4   28   20
 0.4457769547052495    4    4   28   28
 0.009880522491681819    5    1    5    1
 0.014117991403423    5    1    5    3
 -0.002245146224986048    5    1    7    5
 0.01303320102177478    5    1    9    2
 0.01294205976233841    5    1    9    4
 0.010595473322268    5    1   10    9
 0.002274963653646647    5    1   11    5
 0.01143234402011613    5    1   12    1
 0.008104665176369789    5    1   12    3
 0.0003083299673608639    5    1   12    7
 -0.0004892544472412938    5    1   12   11
 0.002991737440201141    5    1   14    5
 0.007994076404365877    5    1   14   12
 -0.009752213956876208    5    1   16    2
 -0.004018818089105872    5    1   16    4
 -0.005937109602926508    5    1   16   10
 -0.001954873168278949    5    1   17    9
 0.001904487345190606    5    1   17   16
 -0.008856916249149091    5    1   18    5
 -0.003125483530919169    5    1   18   12
 0.0088569162491548    5    1   19    6
 0.00312548353090458    5    1   19   13
 -0.004282860885075247    5    1   20    9
 0.006296385326824019    5    1   20   16
 -0.004758213670891695    5    1   21    1
 0.002674374860903415    5    1   21    3
 0.009888724944921356    5    1   21    7
 -0.001542034640423678    5    1   21   11
 -0.003454521524960561    5    1   21   14
 -0.000122507908468264    5    1   21   18
 0.0001225079084274728    5    1   22   19
 0.009086694447113141    5    1   23    8
 -0.002082872834985446    5    1   23   15
 -0.009086694447038407    5    1   24    9
 0.002082872835272445    5    1   24   16
 -0.005045520681448544    5    1   25    5
 -0.003888065627353822    5    1   25   12
 0.00375328236418732    5    1   25   21
 0.001681890592234353    5    1   26   23
 0.005361948738610567    5    1   27    2
 -0.001188627594607196    5    1   27    4
 0.01062523244397793    5    1   27   10
 0.002962481903533748    5    1   27   17
 8.545307191118367e-05    5    1   27   20
 -0.001681890592282667    5    1   27   24
 -0.002350723040360289    5    1   28    9
 5.421694633259014e-07    5    1   28   16
 0.00121316451976915    5    1   28   27
 0.009456106548456428    5    2    5    2
 0.008804444833458925    5    2    5    4
 0.01253626877034974    5    2    9    1
 0.01047964621494718    5    2    9    3
 -0.005067095758505021    5    2    9    7
 0.008397848368131122    5    2   10    5
 0.0018935238211291    5    2   11    9
 0.01099218080332635    5    2   12    2
 0.005006439170669344    5    2   12    4
 0.007199561895886877    5    2   12   10
 0.005427415684810657    5    2   14    9
 -0.009408191865130595    5    2   16    1
 -0.004668447519744291    5    2   16    3
 0.001295040773128384    5    2   16    7
 -0.001203777123205616    5    2   16   11
 -0.004846519371140954    5    2   16   14
 -0.001119724016780539    5    2   17    5
 -0.001022241341183153    5    2   17   12
 -0.006570086505520878    5    2   18    9
 0.002035594910691423    5    2   18   16
 0.006570086505592269    5    2   19    8
 -0.002035594910484059    5    2   19   15
 -0.003289032499480482    5    2   20    5
 -0.005048166082457964    5    2   20   12
 -0.004694788394998002    5    2   21    2
 -0.006006589169330854    5    2   21    4