 &FCI NORB=  24,NELEC=10,MS2=0,
  ORBSYM=1,1,1,1,1,1,1,1,1,1,1,1,1,1,1,1,1,1,1,1,1,1,1,1,
  ISYM=1,
 &END
 4.739841165638675    1    1    1    1
 -0.431009464058917    1    1    2    1
 1.045258906810222    1    1    2    2
 0.8734128342080829    1    1    3    3
 0.1405626277390059    1    1    4    1
 -0.09085960661285016    1    1    4    2
 0.9825737102239108    1    1    4    4
 1.038694888274209    1    1    5    5
 0.1453713903588587    1    1    6    1
 -0.2089251090571188    1    1    6    2
 -0.108025869102772    1    1    6    4
 0.4091591436278575    1    1    6    6
 -0.2439407274105966    1    1    7    3
 0.3985951609770214    1    1    7    7
 -0.1666821331921436    1    1    8    3
 0.1602430215758807    1    1    8    7
 0.5593323814139077    1    1    8    8
 0.1309639522590104    1    1    9    1
 -0.1724208988047007    1    1    9    2
 -0.1686563718347403    1    1    9    4
 0.1717456417633851    1    1    9    6
 0.5882158953080908    1    1    9    9
 -0.09316877434327774    1    1   10    1
 0.02858974686150516    1    1   10    2
 -0.402534751873404    1    1   10    4
 0.08888779134457497    1    1   10    6
 0.1332642847496489    1    1   10    9
 0.8277038839943784    1    1   10   10
 -0.5112641821876986    1    1   11    5
 0.9971348145807644    1    1   11   11
 -0.3355859787043525    1    1   12    3
 0.2199131865689151    1    1   12    7
 0.121629517426459    1    1   12    8
 0.7763226430962127    1    1   12   12
 0.1609967269038397    1    1   13    1
 -0.1513297492732626    1    1   13    2
 0.09410186957418362    1    1   13    4
 0.06568408446130947    1    1   13    6
 0.005731658189276418    1    1   13    9
 -0.0575771560450541    1    1   13   10
 0.5732565751138934    1    1   13   13
 0.5155767274236558    1    1   14   14
 -0.02168436516082339    1    1   15    5
 0.03225510461578062    1    1   15   11
 0.5130109721874393    1    1   15   15
 0.3120986708818169    1    1   16    1
 -0.2887185186025576    1    1   16    2
 0.143222575174462    1    1   16    4
 0.1268852090240663    1    1   16    6
 0.02701234109224798    1    1   16    9
 -0.1125157911721562    1    1   16   10
 0.1096771075422251    1    1   16   13
 0.7790286872827104    1    1   16   16
 0.006735500947755376    1    1   17    3
 -0.006858271176905853    1    1   17    7
 -0.01181990448610129    1    1   17    8
 -0.01107408060944064    1    1   17   12
 0.46377004484484    1    1   17   17
 0.1913767435010513    1    1   18    3
 -0.1427409889433872    1    1   18    7
 -0.2384904095735995    1    1   18    8
 -0.2809569327228691    1    1   18   12
 0.01803783443886638    1    1   18   17
 0.8097228078292216    1    1   18   18
 -0.210717202104003    1    1   19    1
 0.1894711115337866    1    1   19    2
 0.1211530779312905    1    1   19    4
 -0.1487274510342991    1    1   19    6
 -0.2726447173181333    1    1   19    9
 -0.1686383617015877    1    1   19   10
 -0.05307281184311162    1    1   19   13
 -0.06974860480459424    1    1   19   16
 0.8200281457224191    1    1   19   19
 0.00490402514657189    1    1   20    5
 -2.824432025906505e-05    1    1   20   11
 0.1515529769619531    1    1   20   15
 0.8802325408503034    1    1   20   20
 0.1487359468490321    1    1   21   14
 0.8853613880562284    1    1   21   21
 0.009920486934558841    1    1   22    1
 -0.008310732658741264    1    1   22    2
 0.01647432674114804    1    1   22    4
 -0.0001349847757305504    1    1   22    6
 -0.03447223361037715    1    1   22    9
 0.01572074557790699    1    1   22   10
 0.1544337025362183    1    1   22   13
 -0.06297010353414054    1    1   22   16
 -0.00695834106125889    1    1   22   19
 0.8728645542947276    1    1   22   22
 -0.04941808050190516    1    1   23    1
 0.05239183213412443    1    1   23    2
 0.09910405379562967    1    1   23    4
 -0.0424763912725316    1    1   23    6
 -0.05519309891489389    1    1   23    9
 -0.1876024736215586    1    1   23   10
 -0.02045590296331035    1    1   23   13
 -0.1007393576852121    1    1   23   16
 -0.04560602087001479    1    1   23   19
 -0.008908013795020165    1    1   23   22
 0.8908973985748889    1    1   23   23
 -0.127468432883043    1    1   24    3
 0.05413869363652738    1    1   24    7
 -0.004527922048784998    1    1   24    8
 0.2290488719686307    1    1   24   12
 0.01777285763238808    1    1   24   17
 0.03409023741940934    1    1   24   18
 0.9224772142158644    1    1   24   24
 -0.4310094640589174    2    1    1    1
 0.06373532649483869    2    1    2    1
 -0.01415513907421912    2    1    2    2
 -0.006355752698954241    2    1    3    3
 -0.01708411030790538    2    1    4    1
 0.007868961653085245    2    1    4    2
 -0.01259938859233586    2    1    4    4
 -0.01130449330453936    2    1    5    5
 -0.02290124412162363    2    1    6    1
 0.004543467009056039    2    1    6    2
 0.0005708643376446595    2    1    6    4
 -0.001902922619627829    2    1    6    6
 0.004130000648719126    2    1    7    3
 -0.002090962815029395    2    1    7    7
 0.004984597569582811    2    1    8    3
 -0.002407651789418297    2    1    8    7
 -0.001985776172631206    2    1    8    8
 -0.02145735551894161    2    1    9    1
 0.003897283503031714    2    1    9    2
 0.002976734482955693    2    1    9    4
 -0.002347655184659097    2    1    9    6
 -0.002584098768262578    2    1    9    9
 0.009788329023085546    2    1   10    1
 -0.004206609159620278    2    1   10    2
 0.0124538210022671    2    1   10    4
 -0.001156103978845796    2    1   10    6
 -0.004262969258773924    2    1   10    9
 -0.01301942676465289    2    1   10   10
 0.01422412138398714    2    1   11    5
 -0.01804421120611163    2    1   11   11
 0.008120499703453351    2    1   12    3
 -0.004708480375296361    2    1   12    7
 -0.004655676275293318    2    1   12    8
 -0.01057176528554566    2    1   12   12
 -0.02321271690834543    2    1   13    1
 0.00601435431578471    2    1   13    2
 -0.002869393474462106    2    1   13    4
 -0.001685954542481223    2    1   13    6
 -0.0008375110163429407    2    1   13    9
 0.004174147678703912    2    1   13   10
 -0.002443992327515258    2    1   13   13
 0.000968097191744058    2    1   14   14
 0.001851115696911786    2    1   15    5
 -0.0008702966692017433    2    1   15   11
 0.0004985123493024936    2    1   15   15
 -0.0450667474062747    2    1   16    1
 0.01104974988376174    2    1   16    2
 -0.007819488001491634    2    1   16    4
 -0.002796869748586974    2    1   16    6
 -0.001695381134019676    2    1   16    9
 0.006907403651916597    2    1   16   10
 -0.005204229630691798    2    1   16   13
 -0.009504511688029359    2    1   16   16
 -0.0001209393782430486    2    1   17    3
 0.0002601086333189184    2    1   17    7
 0.0006608653870175484    2    1   17    8
 -0.0001662815122886713    2    1   17   12
 0.0008091214631488642    2    1   17   17
 -0.009842392422640093    2    1   18    3
 0.005494758229560896    2    1   18    7
 0.005196785417234447    2    1   18    8
 0.01134443476922288    2    1   18   12
 -0.0005587637035183789    2    1   18   17
 -0.01065214637526065    2    1   18   18
 0.03472379812960615    2    1   19    1
 -0.00798972131124758    2    1   19    2
 -0.004623294085577138    2    1   19    4
 0.004595449477026296    2    1   19    6
 0.00585666446565757    2    1   19    9
 0.006146623089430601    2    1   19   10
 0.001351066165460902    2    1   19   13
 0.003416469907561604    2    1   19   16
 -0.008935110415373003    2    1   19   19
 0.003233892915483473    2    1   20    5
 -0.002253729174037595    2    1   20   11
 -0.0008633346526208112    2    1   20   15
 -0.002036492599176893    2    1   20   20
 -0.0005548610663350898    2    1   21   14
 -0.002214514058175617    2    1   21   21
 -0.001227412815449361    2    1   22    1
 0.0008572332487366721    2    1   22    2
 0.002679944060963088    2    1   22    4
 -0.001015780634494357    2    1   22    6
 -0.001522886136673548    2    1   22    9
 -0.001573220884252339    2    1   22   10
 -0.0006809654173441711    2    1   22   13
 0.0003919912409263587    2    1   22   16
 0.00107405464586291    2    1   22   19
 -0.002036005385686339    2    1   22   22
 0.009867048776846937    2    1   23    1
 -0.002075983328458506    2    1   23    2
 -0.003559204879176151    2    1   23    4
 0.001815085440882047    2    1   23    6
 0.002148580667073512    2    1   23    9
 0.004756064157832276    2    1   23   10
 -0.0001948945862841173    2    1   23   13
 0.0002948255533595975    2    1   23   16
 -0.003312837331915786    2    1   23   19
 0.0005590148012275372    2    1   23   22
 -0.004549724368009232    2    1   23   23
 0.002341596528492688    2    1   24    3
 -0.001252785503933576    2    1   24    7
 -0.0007843450971965829    2    1   24    8
 -0.003998567442261802    2    1   24   12
 -0.0003552210014664498    2    1   24   17
 0.003701870640855613    2    1   24   18
 -0.004563830684101517    2    1   24   24
 1.045258906810222    2    2    1    1
 -0.0141551390742191    2    2    2    1
 0.7533283225934045    2    2    2    2
 0.6787434617915865    2    2    3    3
 0.01463778113833806    2    2    4    1
 0.01751776449339396    2    2    4    2
 0.6795577359852367    2    2    4    4
 0.7137052106753279    2    2    5    5
 0.00180624905713403    2    2    6    1
 -0.108612144435332    2    2    6    2
 -0.05869582317231899    2    2    6    4
 0.3665746557907469    2    2    6    6
 -0.1245732717024689    2    2    7    3
 0.3454723704522591    2    2    7    7
 -0.03304705227752534    2    2    8    3
 0.1003373314811701    2    2    8    7
 0.5112527106036712    2    2    8    8
 -0.0007436548719322723    2    2    9    1
 -0.07105538245481614    2    2    9    2
 -0.06623181370982495    2    2    9    4
 0.1126435844148656    2    2    9    6
 0.522979553683261    2    2    9    9
 -0.01309520613899273    2    2   10    1
 -0.005635965290976395    2    2   10    2
 -0.1452242766073371    2    2   10    4
 0.04843847883023862    2    2   10    6
 0.0277250557995554    2    2   10    9
 0.5698319937779686    2    2   10   10
 -0.1884922553966473    2    2   11    5
 0.6171143209653244    2    2   11   11
 -0.1379333350792147    2    2   12    3
 0.1108656671820608    2    2   12    7
 0.02781574042444206    2    2   12    8
 0.5423937621047777    2    2   12   12
 0.006656513424581833    2    2   13    1
 -0.04676354803347939    2    2   13    2
 0.05912148188140769    2    2   13    4
 0.03504842404011601    2    2   13    6
 -0.004366923521357277    2    2   13    9
 0.01652507186692143    2    2   13   10
 0.5199479098893321    2    2   13   13
 0.5265470611317682    2    2   14   14
 0.01813362704564107    2    2   15    5
 0.02448525960018902    2    2   15   11
 0.5120235138472676    2    2   15   15
 0.01167618780781241    2    2   16    1
 -0.1001452569641314    2    2   16    2
 0.02865949607871805    2    2   16    4
 0.07240119683163952    2    2   16    6
 -0.007773997466508091    2    2   16    9
 -0.01324912133164464    2    2   16   10
 0.02060605417876366    2    2   16   13
 0.5882138968635006    2    2   16   16
 0.0004197110555362879    2    2   17    3
 0.001107324587787773    2    2   17    7
 0.007916101887049783    2    2   17    8
 -0.01791761729423534    2    2   17   12
 0.4863949470605922    2    2   17   17
 0.005461759360715347    2    2   18    3
 -0.03143464746218429    2    2   18    7
 -0.1214767143913862    2    2   18    8
 -0.07322819348892745    2    2   18   12
 0.004066599627842171    2    2   18   17
 0.6060033636360385    2    2   18   18
 9.897037559996763e-06    2    2   19    1
 0.03607621886878826    2    2   19    2
 0.01120072616482323    2    2   19    4
 -0.05189716550926794    2    2   19    6
 -0.1341105411898247    2    2   19    9
 -0.04395243260698777    2    2   19   10
 -0.03118989807323368    2    2   19   13
 -0.01677018492888408    2    2   19   16
 0.6269110607650912    2    2   19   19
 0.0377293443194977    2    2   20    5
 -0.01950768833472061    2    2   20   11
 0.0890731690966929    2    2   20   15
 0.7046549789160962    2    2   20   20
 0.09063252013956251    2    2   21   14
 0.7053094639652288    2    2   21   21
 0.0007792482790658802    2    2   22    1
 0.003607083719752546    2    2   22    2
 0.03802307120630707    2    2   22    4
 -0.01103141262916551    2    2   22    6
 -0.04383563042457479    2    2   22    9
 -0.002408323964500779    2    2   22   10
 0.09440520996556991    2    2   22   13
 -0.03563378717936913    2    2   22   16
 0.003209794621366953    2    2   22   19
 0.7014698944203291    2    2   22   22
 0.00305058906726795    2    2   23    1
 0.01124207907714612    2    2   23    2
 0.01827905339208167    2    2   23    4
 -0.00770396411325684    2    2   23    6
 -0.03187739186316271    2    2   23    9
 -0.0748531960557875    2    2   23   10
 -0.02199140257666906    2    2   23   13
 -0.06279012099157052    2    2   23   16
 -0.04973337968919515    2    2   23   19
 -0.004195232472073113    2    2   23   22
 0.6887812620507472    2    2   23   23
 -0.048921014425101    2    2   24    3
 0.02040501327562299    2    2   24    7
 0.0004560056648049023    2    2   24    8
 0.1188012109681278    2    2   24   12
 0.008491218140884191    2    2   24   17
 0.05368008906958038    2    2   24   18
 0.7008548813618974    2    2   24   24
 0.01919824311400637    3    1    3    1
 0.02314231335667917    3    1    3    2
 -0.003099810308249703    3    1    4    3
 -0.004374668948289291    3    1    6    3
 -0.01082865689036432    3    1    7    1
 -0.009775424941109646    3    1    7    2
 0.003884844525915424    3    1    7    4
 0.0048471196154065    3    1    7    6
 -0.01036119368292475    3    1    8    1
 -0.007329498548491038    3    1    8    2
 0.008916479392307677    3    1    8    4
 0.001720844912907059    3    1    8    6
 0.0007746499749261026    3    1    9    3
 0.001922873067318152    3    1    9    7
 0.004442003133352938    3    1    9    8
 -0.001656760021273433    3    1   10    3
 -0.0004346293546312015    3    1   10    7
 -0.001939229830820126    3    1   10    8
 -0.02358401517944792    3    1   12    1
 -0.01316916500169966    3    1   12    2
 0.001377275165238777    3    1   12    4
 0.006634462028102364    3    1   12    6
 0.004966578928735752    3    1   12    9
 -0.002705425413189398    3    1   12   10
 -0.009396095514351737    3    1   13    3
 0.004221585502216205    3    1   13    7
 0.005549480087132481    3    1   13    8
 0.006438101178956848    3    1   13   12
 0.007185815525403469    3    1   14    5
 -0.0007090008047846039    3    1   14   11
 0.006316410007992421    3    1   15   14
 -0.01033787828145203    3    1   16    3
 0.005574501904383226    3    1   16    7
 0.003676185882018632    3    1   16    8
 0.01407408210845082    3    1   16   12
 0.0002718162591250749    3    1   17    1
 0.0001612576355804701    3    1   17    2
 -0.001251278581026681    3    1   17    4
 -0.0002522129564676414    3    1   17    6
 -0.003190697476910644    3    1   17    9
 0.002977355431245248    3    1   17   10
 0.005461282768351193    3    1   17   13
 -0.0008503213553282197    3    1   17   16
 0.02338859905616003    3    1   18    1
 0.005868025163559298    3    1   18    2
 -0.01036931185849357    3    1   18    4
 -0.0009371070186205345    3    1   18    6
 -0.000232028952072268    3    1   18    9
 0.006925546798817985    3    1   18   10
 -0.004216375226158303    3    1   18   13
 -0.008893605747457702    3    1   18   16
 -0.001460026640122811    3    1   19    3
 0.0001115352674513553    3    1   19    7
 -0.00106542058411243    3    1   19    8
 -0.002883281835761701    3    1   19   12
 0.001262754073375701    3    1   19   17
 0.007675445132451258    3    1   19   18
 -0.0008026487453981974    3    1   20   14
 0.01725979224343024    3    1   21    5
 -0.01196077943679846    3    1   21   11
 -0.001683642140326412    3    1   21   15
 -0.0008708071482849088    3    1   21   20
 -0.01059820938652805    3    1   22    3
 0.005811291919120982    3    1   22    7
 0.005242258403913415    3    1   22    8
 0.007701680105897859    3    1   22   12
 -0.0004440526459250534    3    1   22   17
 -0.004770838785643194    3    1   22   18
 0.0120828556888942    3    1   23    3
 -0.007096678428670455    3    1   23    7
 -0.00869529861859196    3    1   23    8
 -0.008712271363607051    3    1   23   12
 0.0003843539369182019    3    1   23   17
 0.008314679875127696    3    1   23   18
 -0.01280110364721681    3    1   24    1
 -0.005725777526738738    3    1   24    2
 -0.01287956474564396    3    1   24    4
 0.005771562381780038    3    1   24    6
 0.009298654284354278    3    1   24    9
 0.009465202438188764    3    1   24   10
 0.002172280175194949    3    1   24   13
 0.003183381252184046    3    1   24   16
 -0.008582077282018718    3    1   24   19
 0.001935218029172516    3    1   24   22
 -0.003775510997486508    3    1   24   23
 0.02314231335667916    3    2    3    1
 0.1537942053529378    3    2    3    2
 0.01769677350548594    3    2    4    3
 0.0005117864684528349    3    2    6    3
 -0.01270666247897569    3    2    7    1
 -0.0397954576879372    3    2    7    2
 0.02437414325889551    3    2    7    4
 0.05056131215046644    3    2    7    6
 -0.01185626923368344    3    2    8    1
 -0.003664825617644752    3    2    8    2
 0.07688098122785064    3    2    8    4
 0.01004016838396422    3    2    8    6
 0.05961147039719235    3    2    9    3
 0.01663353992380299    3    2    9    7
 0.08203890151840978    3    2    9    8
 -0.03549856750044664    3    2   10    3
 0.005819002636199462    3    2   10    7
 0.0008627177922936628    3    2   10    8
 -0.02555905268858974    3    2   12    1
 -0.03691381547982157    3    2   12    2
 -0.01216595326819873    3    2   12    4
 0.04272473264181966    3    2   12    6
 0.04217521606478836    3    2   12    9
 -0.02080324577144326    3    2   12   10
 -0.04470316178926038    3    2   13    3
 0.01481253793369155    3    2   13    7
 0.04652930201166024    3    2   13    8
 0.01111546562824594    3    2   13   12
 0.06561533224149979    3    2   14    5
 0.02492348340897739    3    2   14   11
 0.1083428526193003    3    2   15   14
 -0.02720659417930253    3    2   16    3
 0.01059907580848694    3    2   16    7
 -0.0155898721235362    3    2   16    8
 0.07620346914921497    3    2   16   12
 0.0004740077910679693    3    2   17    1
 -0.003373915719713307    3    2   17    2
 -0.002622990621997856    3    2   17    4
 -0.004001557653435179    3    2   17    6
 -0.05118065897067231    3    2   17    9
 0.0469513348553338    3    2   17   10
 0.09063016001968797    3    2   17   13
 -0.01221746800287392    3    2   17   16
 0.02280737823998814    3    2   18    1
 -0.02106242334375428    3    2   18    2
 -0.05456928176653267    3    2   18    4
 0.0144225686278715    3    2   18    6
 0.01001292898148356    3    2   18    9
 0.04057276935524202    3    2   18   10
 -0.002666587031734259    3    2   18   13
 -0.02559285303706548    3    2   18   16
 -0.04867684779800305    3    2   19    3
 0.02391653893118625    3    2   19    7
 -0.002444543769751937    3    2   19    8
 0.006553944262918433    3    2   19   12
 0.01137705912869474    3    2   19   17
 0.1024117580795563    3    2   19   18
 -0.02416857277300809    3    2   20   14
 0.0868844864249482    3    2   21    5
 -0.04710499456460558    3    2   21   11
 -0.02767134426885309    3    2   21   15
 0.01065138359929774    3    2   21   20
 -0.0530194500612658    3    2   22    3
 0.03125075480694154    3    2   22    7
 0.01854403695114933    3    2   22    8
 0.03588583651796408    3    2   22   12
 -0.02436813769123889    3    2   22   17
 -0.009857720703291212    3    2   22   18
 0.03975411558455498    3    2   23    3
 -0.03294393033344262    3    2   23    7
 -0.06473382165229918    3    2   23    8
 -0.02127143016187268    3    2   23   12
 0.01090968619790859    3    2   23   17
 0.05293778821682855    3    2   23   18
 -0.0138941209155391    3    2   24    1
 -0.01381875225503388    3    2   24    2
 -0.05440843537321857    3    2   24    4
 0.02451565412230082    3    2   24    6
 0.058965063033268    3    2   24    9
 0.03193344327026721    3    2   24   10
 0.01144995614306735    3    2   24   13
 0.009323317270716025    3    2   24   16
 -0.05094639524381921    3    2   24   19
 -0.004177451156026842    3    2   24   22
 -0.02048842362050855    3    2   24   23
 0.8734128342080827    3    3    1    1
 -0.006355752698954252    3    3    2    1
 0.6787434617915863    3    3    2    2
 0.6632834427160377    3    3    3    3
 0.007165725506110617    3    3    4    1
 0.01482836517127802    3    3    4    2
 0.6050319791485076    3    3    4    4
 0.6216831477604111    3    3    5    5
 0.0005188367195514576    3    3    6    1
 -0.07858353573024285    3    3    6    2
 -0.03774140149224237    3    3    6    4
 0.3564811630720589    3    3    6    6
 -0.1063579723605542    3    3    7    3
 0.3479350111705843    3    3    7    7
 -0.01256706228516495    3    3    8    3
 0.09598515534409244    3    3    8    7
 0.5188453223479895    3    3    8    8
 -0.0001318543653678929    3    3    9    1
 -0.0233015664479502    3    3    9    2
 -0.03016595235286467    3    3    9    4
 0.1023399407511949    3    3    9    6
 0.5229028700858328    3    3    9    9
 -0.006673963968161138    3    3   10    1
 -0.01429827437331771    3    3   10    2
 -0.1173691869107779    3    3   10    4
 0.03654752444237377    3    3   10    6
 0.00605981000810811    3    3   10    9
 0.522911431545832    3    3   10   10
 -0.1419855865817238    3    3   11    5
 0.548039346514447    3    3   11   11
 -0.1100019021704773    3    3   12    3
 0.1026246748725969    3    3   12    7
 0.02735007069227966    3    3   12    8
 0.5249595169631628    3    3   12   12
 0.002284060064482552    3    3   13    1
 -0.05199839721507878    3    3   13    2
 0.05304557114307873    3    3   13    4
 0.0272497274310135    3    3   13    6
 -0.01060146078853008    3    3   13    9
 0.02939770776202376    3    3   13   10
 0.5051844792675679    3    3   13   13
 0.5293195267667072    3    3   14   14
 0.02607597296999747    3    3   15    5
 0.03125723825902085    3    3   15   11
 0.504629529786923    3    3   15   15
 0.0049802260744584    3    3   16    1
 -0.08355560148811886    3    3   16    2
 0.02171939531199901    3    3   16    4
 0.06144061490430874    3    3   16    6
 -0.009822720135403157    3    3   16    9
 -0.01760647830770513    3    3   16   10
 0.006995196769978351    3    3   16   13
 0.5397208774025619    3    3   16   16
 -0.02310919638678268    3    3   17    3
 -0.0008733727813126828    3    3   17    7
 0.000479535227325037    3    3   17    8
 -0.02657129262735453    3    3   17   12
 0.4982257290528397    3    3   17   17
 -0.00104933516748418    3    3   18    3
 -0.01775711450682821    3    3   18    7
 -0.09955003454165778    3    3   18    8
 -0.06030294543355029    3    3   18   12
 0.0112613734047039    3    3   18   17
 0.5936230626347357    3    3   18   18
 -0.0006956142271131964    3    3   19    1
 0.001382937001282189    3    3   19    2
 0.005753966679585828    3    3   19    4
 -0.02819253313241303    3    3   19    6
 -0.1023456480853196    3    3   19    9
 -0.01752487057177989    3    3   19   10
 -0.01248276998362892    3    3   19   13
 -0.01192242476382148    3    3   19   16
 0.5935002531788967    3    3   19   19
 0.01853772540496488    3    3   20    5
 -0.01639043481365887    3    3   20   11
 0.04997956982052291    3    3   20   15
 0.6079137305341743    3    3   20   20
 0.06647037537514978    3    3   21   14
 0.6507599392656428    3    3   21   21
 -0.002288140761472918    3    3   22    1
 -0.02350643176866081    3    3   22    2
 0.02753222204094894    3    3   22    4
 0.003032048828048983    3    3   22    6
 -0.02597507981856187    3    3   22    9
 -0.00297512572683685    3    3   22   10
 0.06677395600603603    3    3   22   13
 -0.01235205679418393    3    3   22   16
 0.01290598073048961    3    3   22   19
 0.6282452189323777    3    3   22   22
 0.005059339724543901    3    3   23    1
 0.02422264831825515    3    3   23    2
 -0.004588205407937781    3    3   23    4
 -0.01026640991845706    3    3   23    6
 -0.03979155637701375    3    3   23    9
 -0.05120034838269602    3    3   23   10
 -0.03050550877012886    3    3   23   13
 -0.04865153518302941    3    3   23   16
 -0.02702126820118251    3    3   23   19
 -0.02782561866158718    3    3   23   22
 0.6388604698986841    3    3   23   23
 -0.02810944787961369    3    3   24    3
 0.01252949794995017    3    3   24    7
 0.008813501897511452    3    3   24    8
 0.09876094167324256    3    3   24   12
 0.003435738892901883    3    3   24   17
 0.03290384199830125    3    3   24   18
 0.6497712029608942    3    3   24   24
 0.1405626277390061    4    1    1    1
 -0.01708411030790541    4    1    2    1
 0.01463778113833803    4    1    2    2
 0.00716572550611061    4    1    3    3
 0.02993711567935333    4    1    4    1
 0.02277646113676334    4    1    4    2
 -0.00948518713029387    4    1    4    4
 0.004340724604491123    4    1    5    5
 -0.0006955778934968131    4    1    6    1
 -0.009643842286076005    4    1    6    2
 -0.00380115605340294    4    1    6    4
 0.006520755852034283    4    1    6    6
 -0.0008762409465500095    4    1    7    3
 0.001795247508057717    4    1    7    7
 0.005160400472020367    4    1    8    3
 -0.0006038446975800804    4    1    8    7
 0.001472543022030196    4    1    8    8
 -0.00683032926416289    4    1    9    1
 -0.01203066694725211    4    1    9    2
 -0.003261158741449919    4    1    9    4
 0.006882998026054451    4    1    9    6
 0.01156840211228    4    1    9    9
 -0.03100833654493917    4    1   10    1
 -0.01259973132062948    4    1   10    2
 0.00549845636475468    4    1   10    4
 0.006073300750371985    4    1   10    6
 0.002648595892459174    4    1   10    9
 -0.002647309357458081    4    1   10   10
 -0.004448089597175298    4    1   11    5
 0.00549186177736761    4    1   11   11
 -0.006152423429552085    4    1   12    3
 0.00269135306536036    4    1   12    7
 0.001572412298816958    4    1   12    8
 0.003903145994365129    4    1   12   12
 0.01154027628003239    4    1   13    1
 -0.0002154200349746182    4    1   13    2
 0.003538399224707771    4    1   13    4
 3.053383128442127e-05    4    1   13    6
 0.001709730728622353    4    1   13    9
 0.006583377614080334    4    1   13   10
 0.001830313694355341    4    1   13   13
 0.006186658176606815    4    1   14   14
 0.007430141301856302    4    1   15    5
 -0.001059547784273872    4    1   15   11
 0.003768438629441235    4    1   15   15
 0.01891006356869564    4    1   16    1
 -0.004318030551201052    4    1   16    2
 -0.01374172870463869    4    1   16    4
 0.004906910845853631    4    1   16    6
 0.00691055917560225    4    1   16    9
 0.01461448206048378    4    1   16   10
 -0.001692853740998802    4    1   16   13
 0.0007586344971646135    4    1   16   16
 6.605228301493387e-05    4    1   17    3
 0.0010938433879686    4    1   17    7
 0.003359226570213987    4    1   17    8
 -0.00169413311405078    4    1   17   12
 0.004629770917211756    4    1   17   17
 -0.005254086016853795    4    1   18    3
 0.002404989304083744    4    1   18    7
 0.001264225093702232    4    1   18    8
 0.001625610703673258    4    1   18   12
 -0.002383974442426543    4    1   18   17
 0.003799469341915667    4    1   18   18
 0.01024215911069734    4    1   19    1
 0.009779094981787237    4    1   19    2
 0.003061804436785783    4    1   19    4
 -0.005925071133730867    4    1   19    6
 -0.0082804693492998    4    1   19    9
 -0.005999017814416981    4    1   19   10
 -0.003588315920233284    4    1   19   13
 -0.008059672740329033    4    1   19   16
 0.01658090043050242    4    1   19   19
 0.01874918635189029    4    1   20    5
 -0.01266729603407005    4    1   20   11
 -0.001963956510720339    4    1   20   15
 9.159713433698133e-05    4    1   20   20
 -0.0004154964939087195    4    1   21   14
 -0.0008975208089289716    4    1   21   21
 0.001234739786199135    4    1   22    1
 0.003347736221996574    4    1   22    2
 0.01845025031511257    4    1   22    4
 -0.005983645322699102    4    1   22    6
 -0.009753985573424492    4    1   22    9
 -0.01133947228838416    4    1   22   10
 -0.0001224593349717111    4    1   22   13
 0.002692765520358881    4    1   22   16
 0.006530370842086508    4    1   22   19
 0.0003686543246019187    4    1   22   22
 0.00970842087089302    4    1   23    1
 0.004587862713757106    4    1   23    2
 0.003033041288965844    4    1   23    4
 -0.003045103081326779    4    1   23    6
 -0.005556281568636426    4    1   23    9
 -0.002121650938236306    4    1   23   10
 -0.001410969392726299    4    1   23   13
 -0.004389587772207288    4    1   23   16
 0.007372678983196167    4    1   23   19
 0.003888089516473965    4    1   23   22
 0.001578081538327959    4    1   23   23
 -0.01558024289205408    4    1   24    3
 0.008794133779662618    4    1   24    7
 0.008810198348896396    4    1   24    8
 0.01288532917324115    4    1   24   12
 -0.001992247170790218    4    1   24   17
 -0.009340353596572266    4    1   24   18
 0.005590539879250822    4    1   24   24
 -0.09085960661285006    4    2    1    1
 0.007868961653085253    4    2    2    1
 0.01751776449339392    4    2    2    2
 0.01482836517127802    4    2    3    3
 0.02277646113676332    4    2    4    1
 0.1261910275834298    4    2    4    2
 -0.07066098728536852    4    2    4    4
 -0.03771120608755692    4    2    5    5
 -0.009223888338865173    4    2    6    1
 -0.01687084291142575    4    2    6    2
 0.003508542406852952    4    2    6    4
 0.02950097934219891    4    2    6    6