 &FCI NORB=  28,NELEC=16,MS2=2,
  ORBSYM=1,1,1,1,1,1,1,1,1,1,1,1,1,1,1,1,1,1,1,1,1,1,1,1,1,1,1,1,
  ISYM=1,
 &END
 2.587665449232769    1    1    1    1
 2.587699526842686    1    1    2    2
 -0.2288774698269798    1    1    3    1
 0.8379465190527222    1    1    3    3
 -0.2412118122509058    1    1    4    2
 0.7690988528886649    1    1    4    4
 0.7616145122048201    1    1    5    5
 0.7616145122048201    1    1    6    6
 0.0755134075375736    1    1    7    1
 0.06761895127704887    1    1    7    3
 0.7771199943276005    1    1    7    7
 0.7882689506617796    1    1    8    8
 0.7882689506617796    1    1    9    9
 -0.1205658337975048    1    1   10    2
 0.1085779944608485    1    1   10    4
 0.7115860623538489    1    1   10   10
 0.2640591712717263    1    1   11    5
 0.647986350768578    1    1   11   11
 0.2640591712717263    1    1   12    6
 0.647986350768578    1    1   12   12
 -0.03459230035206989    1    1   13    2
 0.1162613438511211    1    1   13    4
 -0.293540545195215    1    1   13   10
 0.7059420272137437    1    1   13   13
 -0.05304697265846308    1    1   14    1
 -0.02081822962458044    1    1   14    3
 -0.2494610787078853    1    1   14    7
 0.5806571457220455    1    1   14   14
 -0.2744641921138716    1    1   15    8
 0.5967948563849665    1    1   15   15
 -0.2744641921138716    1    1   16    9
 0.5967948563849665    1    1   16   16
 -0.1921892400790287    1    1   17    1
 0.2091814725933722    1    1   17    3
 -0.05930801038060934    1    1   17    7
 -0.004754234513985191    1    1   17   14
 0.6397177922774139    1    1   17   17
 0.181903783828572    1    1   18    2
 -0.1917571736242936    1    1   18    4
 -0.1397730879954979    1    1   18   10
 -0.005510772662757605    1    1   18   13
 0.6059783302723639    1    1   18   18
 0.0199852908343376    1    1   19    5
 -0.02982449867386184    1    1   19   11
 0.6861658150959459    1    1   19   19
 0.0199852908343376    1    1   20    6
 -0.02982449867386184    1    1   20   12
 0.6861658150959459    1    1   20   20
 0.6651837981424604    1    1   21   21
 0.6651837981424604    1    1   22   22
 0.6657386641387726    1    1   23   23
 0.6657386641387726    1    1   24   24
 0.06695837760074864    1    1   25    1
 -0.05258448022602907    1    1   25    3
 -0.02828635569083264    1    1   25    7
 0.007552304368861416    1    1   25   14
 -0.01211145842000839    1    1   25   17
 0.7451796930864609    1    1   25   25
 0.01584401920883923    1    1   26    8
 -0.04330872726336298    1    1   26   15
 0.6834845694453581    1    1   26   26
 0.01584401920883923    1    1   27    9
 -0.04330872726336298    1    1   27   16
 0.6834845694453581    1    1   27   27
 -0.02252196492380688    1    1   28    2
 -0.01939615831670336    1    1   28    4
 0.07020751831584252    1    1   28   10
 -0.150229772327329    1    1   28   13
 -0.08613545992406074    1    1   28   18
 0.7149292200711534    1    1   28   28
 2.149546322022056    2    1    2    1
 -0.2333141193865452    2    1    3    2
 -0.237705126039316    2    1    4    1
 0.3025133143888256    2    1    4    3
 0.06331729217198354    2    1    7    2
 -0.2500735945556762    2    1    7    4
 0.3665305621961226    2    1    8    6
 0.3665305621961226    2    1    9    5
 -0.1301679027742824    2    1   10    1
 0.2058118721819787    2    1   10    3
 0.2318510260828421    2    1   10    7
 0.2501390118800562    2    1   11    9
 0.2501390118800562    2    1   12    8
 -0.02171086950366536    2    1   13    1
 -0.06253087574703538    2    1   13    3
 -0.2875934030974795    2    1   13    7
 -0.04311653839324744    2    1   14    2
 0.1018071424520604    2    1   14    4
 -0.06850309075089289    2    1   14   10
 0.2832684303199005    2    1   14   13
 -0.2023935967285059    2    1   15    6
 -0.2744353218179643    2    1   15   12
 -0.2023935967285059    2    1   16    5
 -0.2744353218179643    2    1   16   11
 -0.1925555969945053    2    1   17    2
 0.1950763246646482    2    1   17    4
 0.08345167116552873    2    1   17   10
 0.07112742600998502    2    1   17   13
 0.1830358459234408    2    1   18    1
 -0.1738192223975333    2    1   18    3
 0.03133508080643033    2    1   18    7
 -0.02549934058143402    2    1   18   14
 -0.2310639694845156    2    1   18   17
 -0.09668960725151374    2    1   19    9
 0.00404874034160505    2    1   19   16
 -0.09668960725151374    2    1   20    8
 0.00404874034160505    2    1   20   15
 0.2609373509833475    2    1   23   22
 0.2609373509833475    2    1   24   21
 0.07069827236892877    2    1   25    2
 -0.05018472925746539    2    1   25    4
 -0.1983825074660385    2    1   25   10
 0.1474960254456842    2    1   25   13
 0.02698217559947504    2    1   25   18
 -0.0004431907083555136    2    1   26    6
 -0.005955799286891951    2    1   26   12
 0.2456233124618089    2    1   26   20
 -0.0004431907083555136    2    1   27    5
 -0.005955799286891951    2    1   27   11
 0.2456233124618089    2    1   27   19
 -0.02959731201052097    2    1   28    1
 0.05156810886912049    2    1   28    3
 0.08389772096682294    2    1   28    7
 -0.1366740651080695    2    1   28   14
 0.05701117967608318    2    1   28   17
 0.1793412518656631    2    1   28   25
 2.587699526842688    2    2    1    1
 2.587733609497359    2    2    2    2
 -0.228883513071961    2    2    3    1
 0.8379347273727431    2    2    3    3
 -0.2412136379572245    2    2    4    2
 0.7691071588940561    2    2    4    4
 0.7616128789531064    2    2    5    5
 0.7616128789531064    2    2    6    6
 0.07550743944867751    2    2    7    1
 0.06760521845914283    2    2    7    3
 0.7771263205594281    2    2    7    7
 0.7882712787647964    2    2    8    8
 0.7882712787647964    2    2    9    9
 -0.1205739681560852    2    2   10    2
 0.1085693181229205    2    2   10    4
 0.7115836297599739    2    2   10   10
 0.2640617233156838    2    2   11    5
 0.6479872539347923    2    2   11   11
 0.2640617233156838    2    2   12    6
 0.6479872539347923    2    2   12   12
 -0.03458404836670293    2    2   13    2
 0.1162719914373711    2    2   13    4
 -0.2935402345790413    2    2   13   10
 0.7059512132589533    2    2   13   13
 -0.05304118752254337    2    2   14    1
 -0.02081295543880545    2    2   14    3
 -0.2494632353872941    2    2   14    7
 0.5806606922965531    2    2   14   14
 -0.2744660156135569    2    2   15    8
 0.5967966714620644    2    2   15   15
 -0.2744660156135569    2    2   16    9
 0.5967966714620644    2    2   16   16
 -0.1921923554265471    2    2   17    1
 0.2091811218284908    2    2   17    3
 -0.05931804285621552    2    2   17    7
 -0.004745644740850624    2    2   17   14
 0.6397169585263819    2    2   17   17
 0.1819072332400274    2    2   18    2
 -0.1917609628851457    2    2   18    4
 -0.1397677362415082    2    2   18   10
 -0.005518337319060575    2    2   18   13
 0.6059776642079656    2    2   18   18
 0.01997480982017662    2    2   19    5
 -0.02982864245267271    2    2   19   11
 0.6861618207069884    2    2   19   19
 0.01997480982017662    2    2   20    6
 -0.02982864245267271    2    2   20   12
 0.6861618207069884    2    2   20   20
 0.6651807795817447    2    2   21   21
 0.6651807795817447    2    2   22   22
 0.6657367861603742    2    2   23   23
 0.6657367861603745    2    2   24   24
 0.06696343922934701    2    2   25    1
 -0.05258975488802636    2    2   25    3
 -0.02830021972670281    2    2   25    7
 0.00755806982569894    2    2   25   14
 -0.01210956966184726    2    2   25   17
 0.7451774570012411    2    2   25   25
 0.01583488832530942    2    2   26    8
 -0.04330477717936985    2    2   26   15
 0.6834842619484782    2    2   26   26
 0.01583488832530942    2    2   27    9
 -0.04330477717936985    2    2   27   16
 0.6834842619484782    2    2   27   27
 -0.02252599070357385    2    2   28    2
 -0.01939469932326946    2    2   28    4
 0.07019879716303976    2    2   28   10
 -0.1502230904424923    2    2   28   13
 -0.08613266069429786    2    2   28   18
 0.7149284189393833    2    2   28   28
 -0.22887746982698    3    1    1    1
 -0.2288835130719611    3    1    2    2
 0.03803606606344559    3    1    3    1
 -0.002957700536901023    3    1    3    3
 0.0360815806238033    3    1    4    2
 -0.01320422401980798    3    1    4    4
 -0.004558031962608296    3    1    5    5
 -0.004558031962608296    3    1    6    6
 -0.005328708417430748    3    1    7    1
 0.007535138796421793    3    1    7    3
 -0.008629759272560792    3    1    7    7
 -0.007629822693981589    3    1    8    8
 -0.007629822693981589    3    1    9    9
 0.02494445750858481    3    1   10    2
 0.0007251047946052793    3    1   10    4
 -0.004097752932821804    3    1   10   10
 -0.007124764080748295    3    1   11    5
 -0.007352700458800603    3    1   11   11
 -0.007124764080748295    3    1   12    6
 -0.007352700458800603    3    1   12   12
 -0.002513686496470208    3    1   13    2
 -0.008337739550825054    3    1   13    4
 0.004012350101974427    3    1   13   10
 -0.01184463507753642    3    1   13   13
 0.002223785800189085    3    1   14    1
 -0.00310262152275996    3    1   14    3
 0.006470704449282222    3    1   14    7
 -0.006664163723326044    3    1   14   14
 0.007115033294329651    3    1   15    8
 -0.006938086821697932    3    1   15   15
 0.007115033294329651    3    1   16    9
 -0.006938086821697932    3    1   16   16
 0.03052167986114098    3    1   17    1
 -0.006447817139321564    3    1   17    3
 0.007057580646697444    3    1   17    7
 -0.005708823814449744    3    1   17   14
 -0.005528648521389513    3    1   17   17
 -0.02907812402310444    3    1   18    2
 0.008281087446016475    3    1   18    4
 0.0008541068686527074    3    1   18   10
 0.004502788755540157    3    1   18   13
 -0.004859238860803299    3    1   18   18
 0.006022484354163291    3    1   19    5
 0.003363813994476068    3    1   19   11
 0.0009584583754765133    3    1   19   19
 0.006022484354163291    3    1   20    6
 0.003363813994476068    3    1   20   12
 0.0009584583754765133    3    1   20   20
 0.0007606501706080709    3    1   21   21
 0.0007606501706080524    3    1   22   22
 0.0002234022280477767    3    1   23   23
 0.0002234022280477947    3    1   24   24
 -0.0140300431499613    3    1   25    1
 0.005068091763899818    3    1   25    3
 0.007402929750393849    3    1   25    7
 -0.004452082023526096    3    1   25   14
 0.001062627789199092    3    1   25   17
 -0.002347520311300323    3    1   25   25
 0.004853659562261818    3    1   26    8
 -0.00235330837319254    3    1   26   15
 -0.0001877093488041039    3    1   26   26
 0.004853659562261818    3    1   27    9
 -0.00235330837319254    3    1   27   16
 -0.0001877093488041039    3    1   27   27
 0.008066910338323704    3    1   28    2
 -0.0002748325188888202    3    1   28    4
 0.001369364900331509    3    1   28   10
 0.0001366800709346121    3    1   28   13
 -0.0008523040691174695    3    1   28   18
 -0.001483553852617239    3    1   28   28
 -0.2333141193865454    3    2    2    1
 0.03794426614480782    3    2    3    2
 0.03615807423744442    3    2    4    1
 -0.01083375473934933    3    2    4    3
 -0.005577985770911677    3    2    7    2
 0.01170093905508482    3    2    7    4
 -0.009538407265149153    3    2    8    6
 -0.009538407265149153    3    2    9    5
 0.02474466294916457    3    2   10    1
 -0.003433323522715316    3    2   10    3
 -0.005248277799447651    3    2   10    7
 -0.00913913929519463    3    2   11    9
 -0.00913913929519463    3    2   12    8
 -0.002243380633902279    3    2   13    1
 -0.002261335554147472    3    2   13    3
 0.01133056610965793    3    2   13    7
 0.00243158691660357    3    2   14    2
 -0.006476376869030138    3    2   14    4
 0.002659864224181142    3    2   14   10
 -0.01099947686450225    3    2   14   13
 0.007246271637684034    3    2   15    6
 0.009435729049017582    3    2   15   12
 0.007246271637684034    3    2   16    5
 0.009435729049017582    3    2   16   11
 0.0305079491183338    3    2   17    2
 -0.01040525457590404    3    2   17    4
 -0.001775486175439092    3    2   17   10
 -0.005659120907290169    3    2   17   13
 -0.02905573048397069    3    2   18    1
 0.006650853979700492    3    2   18    3
 -0.005300877246762122    3    2   18    7
 0.003744782599332356    3    2   18   14
 0.007821840042737782    3    2   18   17
 0.00526545922065706    3    2   19    9
 -0.002581715424085663    3    2   19   16
 0.00526545922065706    3    2   20    8
 -0.002581715424085663    3    2   20   15
 -0.002925363013489216    3    2   23   22
 -0.002925363013489215    3    2   24   21
 -0.01397373307695132    3    2   25    2
 -7.383797485258668e-05    3    2   25    4
 0.007258922694800498    3    2   25   10
 -0.007041639505541643    3    2   25   13
 -0.001329101439378916    3    2   25   18
 0.00356165262320016    3    2   26    6
 0.002298679677254022    3    2   26   12
 -0.003581192871198358    3    2   26   20
 0.00356165262320016    3    2   27    5
 0.002298679677254022    3    2   27   11
 -0.003581192871198358    3    2   27   19
 0.007912538771740365    3    2   28    1
 -9.896172590382551e-05    3    2   28    3
 0.0003040483892780158    3    2   28    7
 0.002316763552092936    3    2   28   14
 -0.0004398023920066423    3    2   28   17
 -0.00175927368468518    3    2   28   25
 0.8379465190527224    3    3    1    1
 0.8379347273727433    3    3    2    2
 -0.002957700536901071    3    3    3    1
 0.7575445757681403    3    3    3    3
 -0.01647414958067206    3    3    4    2
 0.5901070255549513    3    3    4    4
 0.644893464942647    3    3    5    5
 0.644893464942647    3    3    6    6
 0.02390088492295571    3    3    7    1
 0.1275694622834384    3    3    7    3
 0.6221266647147813    3    3    7    7
 0.625218746529405    3    3    8    8
 0.625218746529405    3    3    9    9
 0.01207470096462908    3    3   10    2
 0.1069882012528401    3    3   10    4
 0.5984091236276653    3    3   10   10
 0.1287313547281353    3    3   11    5
 0.5206104139210281    3    3   11   11
 0.1287313547281353    3    3   12    6
 0.5206104139210281    3    3   12   12
 -0.02443422821022466    3    3   13    2
 0.02511337546842372    3    3   13    4
 -0.195036544991937    3    3   13   10
 0.5162119701136972    3    3   13   13
 -0.01958781043148832    3    3   14    1
 -0.0316415757141873    3    3   14    3
 -0.1428179755670145    3    3   14    7
 0.4741563786409624    3    3   14   14
 -0.1432262512009641    3    3   15    8
 0.4763673633482418    3    3   15   15
 -0.1432262512009641    3    3   16    9
 0.4763673633482418    3    3   16   16
 -0.007247801033008014    3    3   17    1
 0.1069243296745259    3    3   17    3
 0.006439093054392903    3    3   17    7
 -0.06142684564920933    3    3   17   14
 0.559718235697229    3    3   17   17
 0.005364313423163751    3    3   18    2
 -0.08195257582353023    3    3   18    4
 -0.09922785674467356    3    3   18   10
 0.02370231465548006    3    3   18   13
 0.5238526194199001    3    3   18   18
 0.08983527411769153    3    3   19    5
 0.002779061748017047    3    3   19   11
 0.6602281027026397    3    3   19   19
 0.08983527411769153    3    3   20    6
 0.002779061748017047    3    3   20   12
 0.6602281027026397    3    3   20   20
 0.6262998347095673    3    3   21   21
 0.6262998347095673    3    3   22   22
 0.6165173050735615    3    3   23   23
 0.6165173050735615    3    3   24   24
 -0.004896443607397895    3    3   25    1
 0.02859643041227098    3    3   25    3
 0.064454433657124    3    3   25    7
 -0.03892744281122177    3    3   25   14
 0.003864171258491284    3    3   25   17
 0.6714936431389599    3    3   25   25
 0.06136422635538461    3    3   26    8
 -0.05274142895754434    3    3   26   15
 0.6285813726441106    3    3   26   26
 0.06136422635538461    3    3   27    9
 -0.05274142895754434    3    3   27   16
 0.6285813726441106    3    3   27   27
 0.01126113120107389    3    3   28    2
 -0.01256889995437129    3    3   28    4
 0.06218987261773643    3    3   28   10
 -0.112084190474837    3    3   28   13
 -0.07935041428435566    3    3   28   18
 0.6200724498339805    3    3   28   28
 -0.2377051260393162    4    1    2    1
 0.03615807423744442    4    1    3    2
 0.04050122052143312    4    1    4    1
 -0.008406908470613882    4    1    4    3
 -0.01603920098856695    4    1    7    2
 -0.0003710430315730129    4    1    7    4
 -0.006283849548962953    4    1    8    6
 -0.006283849548962953    4    1    9    5
 0.01679322986104167    4    1   10    1
 -0.01064758374047008    4    1   10    3
 -0.003650084765965424    4    1   10    7
 -0.008192228722056816    4    1   11    9
 -0.008192228722056816    4    1   12    8
 0.01053496283322157    4    1   13    1
 0.004660321419427209    4    1   13    3
 0.006963216022759489    4    1   13    7
 0.01243613851978109    4    1   14    2
 -0.001993237970928789    4    1   14    4
 0.006033285871262881    4    1   14   10
 -0.006397026114036684    4    1   14   13
 0.007378394351328239    4    1   15    6
 0.007326613513076145    4    1   15   12
 0.007378394351328239    4    1   16    5
 0.007326613513076145    4    1   16   11
 0.03149444974981226    4    1   17    2
 -0.007133531829094345    4    1   17    4
 -0.007174470208806588    4    1   17   10
 0.003017596589245219    4    1   17   13
 -0.02936239340070135    4    1   18    1
 0.009089934308104584    4    1   18    3
 0.001093918697637308    4    1   18    7
 -0.001034182332862755    4    1   18   14
 0.006197640640292307    4    1   18   17
 -0.002046326814100039    4    1   19    9
 0.0001410264388233338    4    1   19   16
 -0.002046326814100039    4    1   20    8
 0.0001410264388233338    4    1   20   15
 0.0004975521752981665    4    1   23   22
 0.0004975521752981641    4    1   24   21
 -0.008832796991987843    4    1   25    2
 0.003936743521514895    4    1   25    4
 0.003417928211515956    4    1   25   10
 -0.002363657780107351    4    1   25   13
 -0.003824323016281209    4    1   25   18
 -0.003180339335918221    4    1   26    6
 -0.002096289777619531    4    1   26   12
 0.0009594787321571244    4    1   26   20
 -0.003180339335918221    4    1   27    5
 -0.002096289777619531    4    1   27   11
 0.0009594787321571244    4    1   27   19
 0.002051996589437429    4    1   28    1
 -0.00484255246678951    4    1   28    3
 -0.007011606027414585    4    1   28    7
 0.005152222755040343    4    1   28   14
 -0.002189350023027142    4    1   28   17
 0.004117965773468816    4    1   28   25
 -0.241211812250906    4    2    1    1
 -0.2412136379572246    4    2    2    2
 0.03608158062380327    4    2    3    1
 -0.01647414958067201    4    2    3    3
 0.0405619887840497    4    2    4    2
 -0.009401540084868612    4    2    4    4
 -0.008937370931602186    4    2    5    5
 -0.008937370931602186    4    2    6    6
 -0.01624371987886326    4    2    7    1
 -0.004871182339845282    4    2    7    3
 -0.007100480383399481    4    2    7    7
 -0.009286480936304107    4    2    8    8
 -0.009286480936304107    4    2    9    9
 0.0166330369743269    4    2   10    2
 -0.007840223282278165    4    2   10    4
 -0.01178428766458523    4    2   10   10
 -0.008283512337204549    4    2   11    5
 -0.009906685482222203    4    2   11   11
 -0.008283512337204549    4    2   12    6
 -0.009906685482222203    4    2   12   12
 0.01075134913833693    4    2   13    2
 0.0001157706474907431    4    2   13    4
 0.009055665338520143    4    2   13   10
 -0.01003549787496213    4    2   13   13
 0.01260660462810475    4    2   14    1
 0.002633972078737534    4    2   14    3
 0.007719297963826741    4    2   14    7
 -0.006875866787728785    4    2   14   14
 0.008889099534478782    4    2   15    8
 -0.008457357247572525    4    2   15   15
 0.008889099534478782    4    2   16    9
 -0.008457357247572525    4    2   16   16
 0.03148300017198075    4    2   17    1
 -0.009851187150025359    4    2   17    3
 -0.001473729082006797    4    2   17    7
 0.001772721619728851    4    2   17   14
 -0.008678792055477429    4    2   17   17
 -0.0293442769432152    4    2   18    2
 0.007703468473804772    4    2   18    4
 0.0081201272537422    4    2   18   10
 -0.003168427751241068    4    2   18   13
 -0.008091854406005104    4    2   18   18
 -0.003042090572913196    4    2   19    5
 -0.0005987966026900168    4    2   19   11
 -0.002714036806701766    4    2   19   19
 -0.003042090572913196    4    2   20    6
 -0.0005987966026900168    4    2   20   12
 -0.002714036806701766    4    2   20   20
 -0.002386938280365203    4    2   21   21
 -0.002386938280365221    4    2   22   22
 -0.002081152391354619    4    2   23   23
 -0.0020811523913546    4    2   24   24
 -0.008784010221142039    4    2   25    1
 0.003425230275894585    4    2   25    3
 -0.001042067575280212    4    2   25    7
 -0.001460759945287715    4    2   25   14
 0.003705609127647346    4    2   25   17
 -0.005470483021413767    4    2   25   25
 -0.004045484172366937    4    2   26    8
 0.002179946301850162    4    2   26   15
 -0.002111438423431232    4    2   26   26
 -0.004045484172366937    4    2   27    9
 0.002179946301850162    4    2   27   16
 -0.002111438423431232    4    2   27   27
 0.001929393072034475    4    2   28    2
 -0.0001348343726409447    4    2   28    4
 -0.008633559420251118    4    2   28   10
 0.008613304246440707    4    2   28   13
 0.003267834892032245    4    2   28   18
 -0.006181461064139075    4    2   28   28
 0.3025133143888255    4    3    2    1
 -0.01083375473934934    4    3    3    2
 -0.008406908470613893    4    3    4    1
 0.1364429176873455    4    3    4    3
 -0.001241762161589094    4    3    7    2
 -0.1265412041650112    4    3    7    4
 0.1670915143729373    4    3    8    6
 0.1670915143729373    4    3    9    5
 -0.007846262862018064    4    3   10    1
 0.07519012521889025    4    3   10    3
 0.1049962036776944    4    3   10    7
 0.07691249805454752    4    3   11    9
 0.07691249805454752    4    3   12    8
 0.003072989728298581    4    3   13    1
 -0.02246019779682984    4    3   13    3
 -0.09603535972400337    4    3   13    7
 0.001449326271742167    4    3   14    2
 0.02960293113414586    4    3   14    4
 0.009756849392553866    4    3   14   10
 0.1150301030939589    4    3   14   13
 -0.05731205408626964    4    3   15    6
 -0.1118158428549401    4    3   15   12
 -0.05731205408626964    4    3   16    5
 -0.1118158428549401    4    3   16   11
 -0.007321274892071314    4    3   17    2
 0.05908473624847529    4    3   17    4
 0.02074324723172073    4    3   17   10
 0.04234913078169097    4    3   17   13
 0.007079090654312699    4    3   18    1
 -0.04753437753830492    4    3   18    3
 0.006075604626441411    4    3   18    7
 -0.008902151807853989    4    3   18   14
 -0.1039929312512774    4    3   18   17
 -0.05435751118392071    4    3   19    9
 -0.009748796243880408    4    3   19   16
 -0.05435751118392071    4    3   20    8
 -0.009748796243880408    4    3   20   15
 0.1608264273407187    4    3   23   22
 0.1608264273407187    4    3   24   21
 0.003414159062101011    4    3   25    2
 -0.02139186831495378    4    3   25    4
 -0.08739174109358928    4    3   25   10
 0.05544727935761956    4    3   25   13
 -0.002660582966420419    4    3   25   18
 -0.003117391664641317    4    3   26    6
 -0.006919674750229257    4    3   26   12
 0.145666884356342    4    3   26   20
 -0.003117391664641317    4    3   27    5
 -0.006919674750229257    4    3   27   11
 0.145666884356342    4    3   27   19
 -0.003574383869153578    4    3   28    1
 0.01000619320453158    4    3   28    3
 0.01518092371292311    4    3   28    7
 -0.05233701256772565    4    3   28   14
 0.02522546680934458    4    3   28   17
 0.1217098025933025    4    3   28   25
 0.7690988528886648    4    4    1    1
 0.769107158894056    4    4    2    2
 -0.01320422401980801    4    4    3    1
 0.5901070255549514    4    4    3    3
 -0.009401540084868655    4    4    4    2
 0.5989555893108812    4    4    4    4
 0.5706104303963565    4    4    5    5
 0.5706104303963565    4    4    6    6
 -0.003349336333611782    4    4    7    1
 0.001959400350311376    4    4    7    3
 0.5996645028550104    4    4    7    7
 0.5862246796689567    4    4    8    8
 0.5862246796689567    4    4    9    9
 -0.01141685649432692    4    4   10    2
 0.02557955016727323    4    4   10    4
 0.5257453301714445    4    4   10   10
 0.1129392566505775    4    4   11    5
 0.4759626934021665    4    4   11   11
 0.1129392566505775    4    4   12    6
 0.4759626934021665    4    4   12   12
 0.006723768546446434    4    4   13    2
 0.0747771809176522    4    4   13    4
 -0.1317784296574123    4    4   13   10
 0.512822143836545    4    4   13   13
 0.003688451126482562    4    4   14    1
 0.005358673538229199    4    4   14    3
 -0.1032122085324608    4    4   14    7
 0.460688433295752    4    4   14   14
 -0.1134940807203286    4    4   15    8
 0.4538106553276189    4    4   15   15
 -0.1134940807203286    4    4   16    9
 0.4538106553276189    4    4   16   16
 -0.008355072403502318    4    4   17    1
 0.07977090377391174    4    4   17    3
 -0.04864872589867821    4    4   17    7
 0.006201281072180822    4    4   17   14
 0.4985389044690833    4    4   17   17
 0.008342862552599386    4    4   18    2
 -0.07638859132995478    4    4   18    4
 -0.0451354531051263    4    4   18   10
 -0.02595066675433901    4    4   18   13
 0.4788929816352063    4    4   18   18
 -0.01109791179452306    4    4   19    5
 -0.02062566414240865    4    4   19   11
 0.5780732037039191    4    4   19   19
 -0.01109791179452306    4    4   20    6
 -0.02062566414240865    4    4   20   12
 0.5780732037039191    4    4   20   20
 0.5661861070705875    4    4   21   21
 0.5661861070705875    4    4   22   22
 0.5694316441721577    4    4   23   23
 0.5694316441721576    4    4   24   24
 0.00658002923445752    4    4   25    1
 -0.01608103469368867    4    4   25    3
 -0.02769648232469892    4    4   25    7
 -0.01467659550152136    4    4   25   14
 0.01767215361605886    4    4   25   17
 0.5931871843095951    4    4   25   25
 -0.02363383695883166    4    4   26    8
 -0.0211792852247816    4    4   26   15
 0.5811214320427802    4    4   26   26
 -0.02363383695883166    4    4   27    9
 -0.0211792852247816    4    4   27   16
 0.5811214320427802    4    4   27   27
 -0.004260085693995552    4    4   28    2
 -0.003400425039553343    4    4   28    4
 -0.02245620320799572    4    4   28   10
 -0.04270228864117263    4    4   28   13
 -0.04563469055457427    4    4   28   18
 0.5758078700844156    4    4   28   28
 0.01729662551756036    5    1    5    1
 0.01946517552554172    5    1    5    3
 -0.004694360447213705    5    1    7    5
 0.01915174469143216    5    1    9    2
 0.02043058716201024    5    1    9    4
 0.009837655141226833    5    1   10    9
 0.0195159046938276    5    1   11    1
 0.00969456734796427    5    1   11    3
 -0.002656385125277603    5    1   11    7
 0.0003694713477320087    5    1   13    9
 0.004610193598457108    5    1   14    5
 0.002384217654423344    5    1   14   11
 -0.0183822262813354    5    1   16    2
 -0.00897105027029743    5    1   16    4
 -0.007567835808465651    5    1   16   10
 -0.001415566865926167    5    1   16   13
 0.005908817423353516    5    1   17    5
 0.01312572570164465    5    1   17   11
 -0.007392419552363194    5    1   18    9
 0.01185456228949695    5    1   18   16
 -0.002631361953150005    5    1   19    1
 0.00440500592522465    5    1   19    3
 0.01414438664253116    5    1   19    7
 -0.004088203702449562    5    1   19   14
 -0.002742572513334294    5    1   19   17
 -0.01368091487594487    5    1   21    5
 -0.005968100517150433    5    1   21   11
 0.0004984142554407112    5    1   21   19
 0.01368091487594488    5    1   22    6
 0.005968100517150431    5    1   22   12
 -0.0004984142554407113    5    1   22   20
 0.01421174174055598    5    1   23    8
 -0.005666656695256374    5    1   23   15
 -0.01421174174055598    5    1   24    9
 0.005666656695256379    5    1   24   16
 -0.009598699746703796    5    1   25    5
 -0.008154358027064441    5    1   25   11
 0.001010341986697705    5    1   25   19
 0.001215738559693035    5    1   26   23
 0.0002400354114472625    5    1   27    2
 -0.002813847092987026    5    1   27    4
 0.01226204793132887    5    1   27   10
 -0.01076315740067952    5    1   27   13
 -0.0004907282566077328    5    1   27   18
 -0.001215738559693034    5    1   27   24
 -0.00660325824802475    5    1   28    9
 0.003583560140766369    5    1   28   16
 0.003117013696298667    5    1   28   27
 0.01694764953834819    5    2    5    2
 0.01674815038692617    5    2    5    4
 0.01879501905033806    5    2    9    1
 0.01628073704764029    5    2    9    3
 -0.007005838622122242    5    2    9    7
 0.008930832655972913    5    2   10    5
 0.01918279743357148    5    2   11    2
 0.01040608750455041    5    2   11    4
 0.006570967870633635    5    2   11   10
 4.574491506026602e-05    5    2   13    5
 0.001310301153745687    5    2   13   11
 0.004239142391414765    5    2   14    9
 -0.01807337487498085    5    2   16    1
 -0.009071140190860244    5    2   16    3
 0.001598666050719498    5    2   16    7
 -0.003479317856237555    5    2   16   14
 0.008431655110702662    5    2   17    9
 -0.009354979443557076    5    2   17   16
 -0.007296255738500947    5    2   18    5
 -0.01033837168396124    5    2   18   11
 -0.002663186018001105    5    2   19    2
 -0.006031997749087249    5    2   19    4
 0.007492513777420657    5    2   19   10
 -0.008195487331903567    5    2   19   13
 -0.0001022239201815866    5    2   19   18
 -0.01201206904418861    5    2   21    9
 0.005365188549993837    5    2   21   16