 &FCI NORB=  26,NELEC=20,MS2=0,
  ORBSYM=1,1,1,1,1,1,1,1,1,1,1,1,1,1,1,1,1,1,1,1,1,1,1,1,1,1,
  ISYM=1,
 &END
 2.457963187068408    1    1    1    1
 1.037460422653952e-08    1    1    2    1
 2.457994609489169    1    1    2    2
 -1.446366047004773e-09    1    1    3    1
 -0.2120243400468169    1    1    3    2
 0.6060824693146108    1    1    3    3
 0.214992017907161    1    1    4    1
 4.886244887977904e-10    1    1    4    2
 -1.962229919728106e-09    1    1    4    3
 0.6123242682319315    1    1    4    4
 -9.885238168392402e-11    1    1    5    1
 -0.01544119457332106    1    1    5    2
 0.001329549696905997    1    1    5    3
 -1.666660151902755e-10    1    1    5    4
 0.511364842373191    1    1    5    5
 0.009778169458393811    1    1    6    1
 2.925553712045809e-11    1    1    6    2
 -2.989122529139729e-11    1    1    6    3
 0.02285255252654242    1    1    6    4
 1.538290854939672e-09    1    1    6    5
 0.5381317546726553    1    1    6    6
 5.362118893435103e-10    1    1    7    1
 0.07852823112806939    1    1    7    2
 -0.0484339083002102    1    1    7    3
 2.245336320301147e-10    1    1    7    4
 -0.0005468156671892461    1    1    7    5
 2.11130374468127e-10    1    1    7    6
 0.5741579477746463    1    1    7    7
 -0.07429544943629068    1    1    8    1
 -1.683992308493503e-10    1    1    8    2
 1.826903830241789e-10    1    1    8    3
 -0.04155561863785585    1    1    8    4
 1.709156774443166e-10    1    1    8    5
 0.003213581616992818    1    1    8    6
 -1.819785624165675e-09    1    1    8    7
 0.5823434196608316    1    1    8    8
 0.6065002208016155    1    1    9    9
 -1.976132507630624e-09    1    1   10    9
 0.610810536968017    1    1   10   10
 -5.385162318784394e-10    1    1   11    1
 -0.07874906431907262    1    1   11    2
 0.1176076783981051    1    1   11    3
 -5.533067775655154e-10    1    1   11    4
 -0.02867605982973623    1    1   11    5
 -3.036595540989451e-10    1    1   11    6
 0.06879150804695942    1    1   11    7
 -3.970133180541957e-10    1    1   11    8
 0.3497672911538204    1    1   11   11
 0.06248643016263681    1    1   12    1
 1.396546275432738e-10    1    1   12    2
 -4.117091887003528e-10    1    1   12    3
 0.09401491438371776    1    1   12    4
 -3.514067340067151e-10    1    1   12    5
 -0.09110070753910039    1    1   12    6
 -2.663814589916325e-10    1    1   12    7
 0.05887195869387125    1    1   12    8
 -4.963666075386008e-10    1    1   12   11
 0.3017566515292589    1    1   12   12
 6.340726305554406e-11    1    1   13    1
 0.009962714923084244    1    1   13    2
 -0.01199185969451878    1    1   13    3
 5.362588389838663e-11    1    1   13    4
 -0.1420455159768289    1    1   13    5
 -7.04806213391862e-10    1    1   13    6
 -0.01983645183196336    1    1   13    7
 -8.359342731911745e-11    1    1   13    8
 0.04897553812085215    1    1   13   11
 5.514594406119677e-10    1    1   13   12
 0.3375880242454993    1    1   13   13
 -0.04468694057304221    1    1   14    1
 -1.048298402294215e-10    1    1   14    2
 2.868664139240619e-10    1    1   14    3
 -0.06237006516629494    1    1   14    4
 -4.037021784572548e-10    1    1   14    5
 -0.1020099410310071    1    1   14    6
 1.386061981335784e-10    1    1   14    7
 -0.03799447198369624    1    1   14    8
 4.430093583640549e-10    1    1   14   11
 -0.005949717870410479    1    1   14   12
 5.230540132961092e-10    1    1   14   13
 0.3327940311009856    1    1   14   14
 1.896134344371928e-10    1    1   15    1
 0.02768898886403575    1    1   15    2
 -0.02240359606939221    1    1   15    3
 1.088931684623332e-10    1    1   15    4
 0.0203671920966071    1    1   15    5
 1.480986075962087e-10    1    1   15    6
 0.03000538282897787    1    1   15    7
 -1.958764179500749e-10    1    1   15    8
 -0.01271557462785051    1    1   15   11
 -1.704948855707489e-11    1    1   15   12
 0.02073486688376811    1    1   15   13
 1.394709764346302e-10    1    1   15   14
 0.3408946909552147    1    1   15   15
 -0.02406224895091153    1    1   16    1
 -5.692325517875742e-11    1    1   16    2
 4.777113377590165e-11    1    1   16    3
 -0.007511026380223078    1    1   16    4
 -1.823633106502742e-10    1    1   16    5
 -0.04706602041391785    1    1   16    6
 -3.751539578121521e-10    1    1   16    7
 0.09007921640957696    1    1   16    8
 1.296657399507684e-11    1    1   16   11
 0.05728880390365677    1    1   16   12
 3.195609263317856e-10    1    1   16   13
 0.04777837615918818    1    1   16   14
 4.297435818659268e-10    1    1   16   15
 0.3760125946396311    1    1   16   16
 -0.2553295370864651    1    1   17    9
 1.166129533214377e-09    1    1   17   10
 0.5759426352812917    1    1   17   17
 0.08367024434900917    1    1   18    1
 1.907253620664963e-10    1    1   18    2
 -4.816118190289088e-10    1    1   18    3
 0.1046481381660655    1    1   18    4
 6.447783257833295e-11    1    1   18    5
 0.006372088628967518    1    1   18    6
 -4.122350002588177e-10    1    1   18    7
 0.09880200975546519    1    1   18    8
 -5.864908229208377e-10    1    1   18   11
 0.09860419284450445    1    1   18   12
 -2.525052823082463e-11    1    1   18   13
 -0.06598834371863141    1    1   18   14
 1.410642045882038e-10    1    1   18   15
 0.0208479083564833    1    1   18   16
 0.4535790055134072    1    1   18   18
 -3.481316909146335e-11    1    1   19    1
 -0.005428589662769414    1    1   19    2
 0.04331512845396628    1    1   19    3
 -2.002302167927912e-10    1    1   19    4
 0.04175853352460113    1    1   19    5
 2.328814808095353e-10    1    1   19    6
 0.205801862073184    1    1   19    7
 -9.337052036487853e-10    1    1   19    8
 0.1047563023287049    1    1   19   11
 -5.146808296392635e-10    1    1   19   12
 -0.04866071287998289    1    1   19   13
 9.561514774381052e-11    1    1   19   14
 0.04392843376485352    1    1   19   15
 -6.991242775672424e-10    1    1   19   16
 -1.19527174095857e-09    1    1   19   18
 0.5660291745831938    1    1   19   19
 1.135356010595334e-09    1    1   20    9
 -0.2553629964574416    1    1   20   10
 -1.831778229099967e-09    1    1   20   17
 0.5737406437244912    1    1   20   20
 6.177330182750504e-10    1    1   21    1
 0.09050575314364656    1    1   21    2
 -0.07052621577055726    1    1   21    3
 3.461936968649978e-10    1    1   21    4
 -0.01076122459922483    1    1   21    5
 1.138049745587344e-10    1    1   21    6
 0.1087653290855674    1    1   21    7
 -4.524129998580151e-10    1    1   21    8
 -0.03002436060472792    1    1   21   11
 4.343187268163184e-11    1    1   21   12
 -0.007164609282335348    1    1   21   13
 -1.003783861586172e-11    1    1   21   14
 0.01375895386535205    1    1   21   15
 -5.036162320504189e-10    1    1   21   16
 3.477552065755951e-10    1    1   21   18
 0.07009867141406048    1    1   21   19
 0.3861855412004861    1    1   21   21
 0.09711274548873222    1    1   22    1
 2.182313319782317e-10    1    1   22    2
 -2.789635104684789e-10    1    1   22    3
 0.06501085225660803    1    1   22    4
 -2.695407449754966e-10    1    1   22    5
 -0.04467394629765382    1    1   22    6
 8.608554776548495e-10    1    1   22    7
 -0.1978941806156543    1    1   22    8
 1.866572745977055e-10    1    1   22   11
 0.01264382066086686    1    1   22   12
 2.519964274142611e-10    1    1   22   13
 0.06395402938997953    1    1   22   14
 4.109147627197329e-10    1    1   22   15
 -0.04984553533597248    1    1   22   16
 -0.08446478842513287    1    1   22   18
 9.994654627846437e-10    1    1   22   19
 8.203014073668476e-10    1    1   22   21
 0.5157675037588543    1    1   22   22
 1.461234015528328e-10    1    1   23    1
 0.02275799900026881    1    1   23    2
 -0.0143156291540162    1    1   23    3
 4.56561507892507e-11    1    1   23    4
 -0.185066626145766    1    1   23    5
 -9.201398417073986e-10    1    1   23    6
 0.03633619412679204    1    1   23    7
 -3.006879302838716e-10    1    1   23    8
 0.06322241664922643    1    1   23   11
 3.73841803867625e-10    1    1   23   12
 0.1737117777592799    1    1   23   13
 5.727670317201561e-10    1    1   23   14
 -0.01440800802602113    1    1   23   15
 3.12824606496509e-10    1    1   23   16
 -2.297358596761723e-10    1    1   23   18
 -0.007672676958749042    1    1   23   19
 0.003131160387838857    1    1   23   21
 8.920045188598458e-10    1    1   23   22
 0.5945511897482073    1    1   23   23
 0.006986201036410945    1    1   24    1
 -3.928177237766503e-11    1    1   24    3
 0.0176661887868042    1    1   24    4
 -8.110109274688665e-10    1    1   24    5
 -0.1948791321720544    1    1   24    6
 -2.436933049018014e-10    1    1   24    7
 0.02514057524268172    1    1   24    8
 9.82414549016708e-11    1    1   24   11
 0.1018496765142331    1    1   24   12
 6.843752431082151e-10    1    1   24   13
 0.09618426506921364    1    1   24   14
 -3.842697661807226e-10    1    1   24   15
 0.07691770619332612    1    1   24   16
 0.009165399855322828    1    1   24   18
 -6.695710804381638e-10    1    1   24   19
 -1.428760352216452e-10    1    1   24   21
 0.02551694762361253    1    1   24   22
 1.665744885775977e-09    1    1   24   23
 0.5810775460984583    1    1   24   24
 1.241203858226222e-09    1    1   25    1
 0.181911962737208    1    1   25    2
 -0.1753860737071169    1    1   25    3
 8.023326380991909e-10    1    1   25    4
 0.000774126203898332    1    1   25    5
 9.078078241388232e-11    1    1   25    6
 0.02774635919498059    1    1   25    7
 -9.920240583854989e-11    1    1   25    8
 -0.1079536014823592    1    1   25   11
 3.521148737167801e-10    1    1   25   12
 0.007362200101776394    1    1   25   13
 -4.390713070900887e-10    1    1   25   14
 0.0208805265490452    1    1   25   15
 -2.449817779193175e-11    1    1   25   16
 4.897366037009965e-10    1    1   25   18
 -0.04143583091985919    1    1   25   19
 0.05513587209252549    1    1   25   21
 2.731387546694997e-10    1    1   25   22
 -0.01826266305029846    1    1   25   23
 6.377231728804666e-11    1    1   25   24
 0.4989188469590015    1    1   25   25
 0.1612276292837421    1    1   26    1
 3.680015287081163e-10    1    1   26    2
 -6.974455795270211e-10    1    1   26    3
 0.1555334366999988    1    1   26    4
 5.508606548340622e-11    1    1   26    5
 0.02965754702140769    1    1   26    6
 8.161458770090946e-11    1    1   26    7
 -0.009761390732427461    1    1   26    8
 -4.313353771379091e-10    1    1   26   11
 0.06679531228352135    1    1   26   12
 -4.577600277999583e-11    1    1   26   13
 -0.07599679090228102    1    1   26   14
 4.261248428769071e-11    1    1   26   15
 0.00102285434778609    1    1   26   16
 0.08978576656680748    1    1   26   18
 -1.672988427479927e-10    1    1   26   19
 1.046949905242345e-10    1    1   26   21
 0.02769639293643554    1    1   26   22
 -1.553594353859156e-10    1    1   26   23
 -0.02614617432654054    1    1   26   24
 1.38710651298446e-09    1    1   26   25
 0.4739916271113839    1    1   26   26
 1.037460467670026e-08    2    1    1    1
 2.28160185281186    2    1    2    1
 -1.037445292710213e-08    2    1    2    2
 -0.212033124292366    2    1    3    1
 4.818479464442724e-10    2    1    3    2
 4.886189781776185e-10    2    1    4    1
 0.2149994574759722    2    1    4    2
 -0.4315387744814971    2    1    4    3
 -0.01401988063882846    2    1    5    1
 3.187979292715044e-11    2    1    5    2
 -0.03665516374549677    2    1    5    4
 2.574923729640501e-11    2    1    6    1
 0.01132191193465745    2    1    6    2
 -0.006568781280892478    2    1    6    3
 0.3383040517337367    2    1    6    5
 0.0786463569540659    2    1    7    1
 -1.787363285818279e-10    2    1    7    2
 0.04938180691320421    2    1    7    4
 0.04643281084094759    2    1    7    6
 -1.686174485526434e-10    2    1    8    1
 -0.07419866559955619    2    1    8    2
 0.04017919569875267    2    1    8    3
 0.03758830172765261    2    1    8    5
 -0.4002113594152293    2    1    8    7
 -0.4345944691460656    2    1   10    9
 -0.07905996031028444    2    1   11    1
 1.79747151692511e-10    2    1   11    2
 -0.1217129021373276    2    1   11    4
 -0.06678132537901625    2    1   11    6
 -0.08732939074838549    2    1   11    8
 1.408723476174908e-10    2    1   12    1
 0.06195241764874238    2    1   12    2
 -0.09051928793686412    2    1   12    3
 -0.07727579474769358    2    1   12    5
 -0.05856886222919445    2    1   12    7
 -0.1091609645355097    2    1   12   11
 0.00896554610707472    2    1   13    1
 -2.039490680729079e-11    2    1   13    2
 0.01179921609767472    2    1   13    4
 -0.1550111599612078    2    1   13    6
 -0.0183779587252343    2    1   13    8
 0.1212801821176341    2    1   13   12
 -1.032261280644567e-10    2    1   14    1
 -0.04539454877053051    2    1   14    2
 0.06307143559904035    2    1   14    3
 -0.0887807901575922    2    1   14    5
 0.03047287735788548    2    1   14    7
 0.09742675311470143    2    1   14   11
 0.1150317610067403    2    1   14   13
 0.02785563376864503    2    1   15    1
 -6.332778040857848e-11    2    1   15    2
 0.02395263941805643    2    1   15    4
 0.03257147914957743    2    1   15    6
 -0.04308272052311642    2    1   15    8
 -0.003750164290025494    2    1   15   12
 0.03067407413175987    2    1   15   14
 -5.580928684549005e-11    2    1   16    1
 -0.02455222074098274    2    1   16    2
 0.01050728727951962    2    1   16    3
 -0.04010046367183161    2    1   16    5
 -0.08248453155388941    2    1   16    7
 0.002852625389479032    2    1   16   11
 0.07027631616518232    2    1   16   13
 0.09451168002010135    2    1   16   15
 0.256598859188476    2    1   17   10
 1.904807336404327e-10    2    1   18    1
 0.08378144594641088    2    1   18    2
 -0.1058931411082564    2    1   18    3
 0.01418480565146332    2    1   18    5
 -0.09061528243112726    2    1   18    7
 -0.1289762507001668    2    1   18   11
 -0.005555492004855032    2    1   18   13
 0.03102886609780763    2    1   18   15
 -0.004951719594904684    2    1   19    1
 1.129662051802102e-11    2    1   19    2
 -0.04405697251502535    2    1   19    4
 0.05121621725241269    2    1   19    6
 -0.20539943797469    2    1   19    8
 -0.1131973480488563    2    1   19   12
 0.02103168650109069    2    1   19   14
 -0.1537529800549753    2    1   19   16
 -0.2628566895883104    2    1   19   18
 0.2495515338493242    2    1   20    9
 -0.4028514616633762    2    1   20   17
 0.09059928708524363    2    1   21    1
 -2.059687374133959e-10    2    1   21    2
 0.07614928941550685    2    1   21    4
 0.02502707825571124    2    1   21    6
 -0.09951557403300126    2    1   21    8
 0.009550500105400334    2    1   21   12
 -0.002206182932172736    2    1   21   14
 -0.1107554404440104    2    1   21   16
 0.07648897652710501    2    1   21   18
 2.195083582098628e-10    2    1   22    1
 0.09655002319086926    2    1   22    2
 -0.06133665204107948    2    1   22    3
 -0.05927112180144561    2    1   22    5
 0.1892813869355827    2    1   22    7
 0.04104904411775138    2    1   22   11
 0.05541460481583881    2    1   22   13
 0.09036929780287875    2    1   22   15
 0.2198181758720409    2    1   22   19
 0.1804013886249029    2    1   22   21
 0.02075929914529554    2    1   23    1
 -4.721311268212185e-11    2    1   23    2
 0.01004513879872016    2    1   23    4
 -0.2023667783452689    2    1   23    6
 -0.06614051111970468    2    1   23    8
 0.08221393635406002    2    1   23   12
 0.1259668784797711    2    1   23   14
 0.06879199859813692    2    1   23   16
 -0.05052780784314448    2    1   23   18
 0.1961695833780401    2    1   23   22
 1.141286624397036e-11    2    1   24    1
 0.005020658648364948    2    1   24    2
 -0.00863496829884298    2    1   24    3
 -0.1783543863983829    2    1   24    5
 -0.05358966911984207    2    1   24    7
 0.02160433101242961    2    1   24   11
 0.1505153062081518    2    1   24   13
 -0.08451053429681211    2    1   24   15
 -0.1472566258751164    2    1   24   19
 -0.0314215005343127    2    1   24   21
 0.3663384960162188    2    1   24   23
 0.1820228411266737    2    1   25    1
 -4.138626287836011e-10    2    1   25    2
 0.1764966958651291    2    1   25    4
 0.01996564459532918    2    1   25    6
 -0.02182408133212485    2    1   25    8
 0.07743670676600441    2    1   25   12
 -0.09656135402561009    2    1   25   14
 -0.005390002301836512    2    1   25   16
 0.1077061615434111    2    1   25   18
 0.06007239967765746    2    1   25   22
 0.01402342541511653    2    1   25   24
 3.673089326370862e-10    2    1   26    1
 0.1615368029300975    2    1   26    2
 -0.1533439412820072    2    1   26    3
 0.01211334405330719    2    1   26    5
 0.01794637553847831    2    1   26    7
 -0.09485778543452658    2    1   26   11
 -0.01006523416734377    2    1   26   13
 0.009370976572612912    2    1   26   15
 -0.03680177796176206    2    1   26   19
 0.02302193553473695    2    1   26   21
 -0.03416518306912166    2    1   26   23
 0.305056625989675    2    1   26   25
 2.45799460948917    2    2    1    1
 -1.037445333346111e-08    2    2    2    1
 2.458026033280668    2    2    2    2
 4.818680333223968e-10    2    2    3    1
 -0.2120292403871519    2    2    3    2
 0.6060823666701826    2    2    3    3
 0.2149969564828288    2    2    4    1
 -1.466607940018953e-09    2    2    4    2
 1.962216089211512e-09    2    2    4    3
 0.6123242548712757    2    2    4    4
 2.864804812645338e-11    2    2    5    1
 -0.01544005931808924    2    2    5    2
 0.001331062174265973    2    2    5    3
 1.666787905613143e-10    2    2    5    4
 0.5113649840699054    2    2    5    5
 0.009779810245018578    2    2    6    1
 -7.371050804775257e-11    2    2    6    2
 2.984577613263789e-11    2    2    6    3
 0.02285114159177253    2    2    6    4
 -1.538271498895127e-09    2    2    6    5
 0.5381317661155222    2    2    6    6
 -1.790048899987786e-10    2    2    7    1
 0.07852782700617063    2    2    7    2
 -0.04843574522070535    2    2    7    3
 -2.245482903350665e-10    2    2    7    4
 -0.0005471844951333367    2    2    7    5
 -2.111330819377921e-10    2    2    7    6
 0.5741595649384483    2    2    7    7
 -0.07429468849025898    2    2    8    1
 5.063672972782293e-10    2    2    8    2
 -1.827023021058944e-10    2    2    8    3
 -0.04155770128824107    2    2    8    4
 -1.709151498715394e-10    2    2    8    5
 0.003213707007767234    2    2    8    6
 1.819766475203745e-09    2    2    8    7
 0.5823451051904703    2    2    8    8
 0.6065009382618615    2    2    9    9
 1.976102004253022e-09    2    2   10    9
 0.6108112717610265    2    2   10   10
 1.80454162246671e-10    2    2   11    1
 -0.07875206513928636    2    2   11    2
 0.1176070189131161    2    2   11    3
 5.53559676395865e-10    2    2   11    4
 -0.02867598349434492    2    2   11    5
 3.036548512636017e-10    2    2   11    6
 0.06879153766014662    2    2   11    7
 3.971665895469156e-10    2    2   11    8
 0.349766631542229    2    2   11   11
 0.06248798457305965    2    2   12    1
 -4.23748896208494e-10    2    2   12    2
 4.114803652704221e-10    2    2   12    3
 0.09401502054842846    2    2   12    4
 3.513451682368718e-10    2    2   12    5
 -0.09110114729370093    2    2   12    6
 2.662479583592087e-10    2    2   12    7
 0.05887167605420514    2    2   12    8
 4.963518415723733e-10    2    2   12   11
 0.3017567332000685    2    2   12   12
 -1.812793627231982e-11    2    2   13    1
 0.009961919020305382    2    2   13    2
 -0.01199261033025831    2    2   13    3
 -5.367726966035158e-11    2    2   13    4
 -0.1420460632336704    2    2   13    5
 7.048769649561915e-10    2    2   13    6
 -0.01983604730942262    2    2   13    7
 8.353721620696364e-11    2    2   13    8
 0.04897524143590901    2    2   13   11
 -5.514715368387657e-10    2    2   13   12
 0.3375882190683677    2    2   13   13
 -0.0446891718202156    2    2   14    1
 3.07996692887791e-10    2    2   14    2
 -2.867100818776868e-10    2    2   14    3
 -0.06236938036759084    2    2   14    4
 4.03677227062138e-10    2    2   14    5
 -0.1020100963136668    2    2   14    6
 -1.385163602742046e-10    2    2   14    7
 -0.03799478194088988    2    2   14    8
 -4.429971250941023e-10    2    2   14   11
 -0.00594935159915857    2    2   14   12
 -5.230523202059967e-10    2    2   14   13
 0.3327935736348073    2    2   14   14
 -6.370662509894501e-11    2    2   15    1
 0.02768948760005913    2    2   15    2
 -0.0224036894021188    2    2   15    3
 -1.089339359819017e-10    2    2   15    4
 0.02036674103959241    2    2   15    5
 -1.481088958074639e-10    2    2   15    6
 0.0300059965981043    2    2   15    7
 1.959210719007509e-10    2    2   15    8
 -0.01271539197338027    2    2   15   11
 1.705466410456546e-11    2    2   15   12
 0.02073498164510778    2    2   15   13
 -1.394814125310617e-10    2    2   15   14
 0.3408945314904449    2    2   15   15
 -0.02406220342869059    2    2   16    1
 1.663563756251752e-10    2    2   16    2
 -4.778289915163044e-11    2    2   16    3
 -0.007511264611644388    2    2   16    4
 1.823132653958753e-10    2    2   16    5
 -0.04706661296737782    2    2   16    6
 3.749666074599062e-10    2    2   16    7
 0.09007937582022914    2    2   16    8
 -1.297523720411586e-11    2    2   16   11
 0.05728885718636791    2    2   16   12
 -3.195375197079242e-10    2    2   16   13
 0.04777850504520906    2    2   16   14
 -4.297525646977662e-10    2    2   16   15
 0.3760124611138003    2    2   16   16
 -0.2553305191686266    2    2   17    9
 -1.167399583251738e-09    2    2   17   10
 0.5759438302284206    2    2   17   17
 0.08367398199401418    2    2   18    1
 -5.711978624447768e-10    2    2   18    2
 4.813882895921679e-10    2    2   18    3
 0.1046476260433093    2    2   18    4
 -6.451990569415755e-11    2    2   18    5
 0.006371978889962947    2    2   18    6
 4.118272335564693e-10    2    2   18    7
 0.09880221176624213    2    2   18    8
 5.864287423718029e-10    2    2   18   11
 0.0986040559969462    2    2   18   12
 2.527149756820224e-11    2    2   18   13
 -0.06598799660027752    2    2   18   14
 -1.411145553707749e-10    2    2   18   15
 0.02084847391243311    2    2   18   16
 0.4535783312643387    2    2   18   18
 1.021232197520898e-11    2    2   19    1
 -0.005431156894572266    2    2   19    2
 0.04331426360110656    2    2   19    3
 2.004271971913635e-10    2    2   19    4
 0.04175855793377676    2    2   19    5
 -2.32882600573539e-10    2    2   19    6
 0.2058029466483715    2    2   19    7
 9.342127590180466e-10    2    2   19    8
 0.1047560597919097    2    2   19   11
 5.1474429840076e-10    2    2   19   12
 -0.04866082721131714    2    2   19   13
 -9.564826014551997e-11    2    2   19   14
 0.04392858876221115    2    2   19   15
 6.991168980535756e-10    2    2   19   16
 1.195166860444574e-09    2    2   19   18
 0.5660300942795116    2    2   19   19
 -1.13408425705952e-09    2    2   20    9
 -0.2553639807594833    2    2   20   10
 1.831783072447912e-09    2    2   20   17
 0.573741845001371    2    2   20   20
 -2.061813995631132e-10    2    2   21    1
 0.0905067547761739    2    2   21    2
 -0.07052682996629675    2    2   21    3
 -3.463137166360292e-10    2    2   21    4
 -0.01076126462469076    2    2   21    5
 -1.137931801738212e-10    2    2   21    6
 0.1087662041563869    2    2   21    7
 4.525891523533832e-10    2    2   21    8
 -0.03002429254879403    2    2   21   11
 -4.342123795936237e-11    2    2   21   12
 -0.007164361060850673    2    2   21   13
 1.002539024019811e-11    2    2   21   14
 0.01375937739128123    2    2   21   15
 5.036021981374983e-10    2    2   21   16
 -3.478412297780453e-10    2    2   21   18
 0.07009975731623859    2    2   21   19
 0.3861857430509005    2    2   21   21
 0.09711185778768426    2    2   22    1
 -6.597997421662642e-10    2    2   22    2
 2.78836670856142e-10    2    2   22    3
 0.06501229252854922    2    2   22    4
 2.694751894500788e-10    2    2   22    5
 -0.04467449190720442    2    2   22    6
 -8.604837281351186e-10    2    2   22    7
 -0.1978959942440491    2    2   22    8
 -1.866455849467222e-10    2    2   22   11
 0.01264423839837284    2    2   22   12
 -2.519486494434453e-10    2    2   22   13
 0.06395416648809574    2    2   22   14
 -4.109103923007756e-10    2    2   22   15
 -0.04984617265782219    2    2   22   16
 -0.08446496569037956    2    2   22   18
 -9.995778920833705e-10    2    2   22   19
 -8.202827116556358e-10    2    2   22   21
 0.5157698217663157    2    2   22   22
 -4.266890105944412e-11    2    2   23    1
 0.02275548192032818    2    2   23    2
 -0.01431690334512362    2    2   23    3
 -4.569502702654951e-11    2    2   23    4
 -0.185067629988049    2    2   23    5
 9.201987778532927e-10    2    2   23    6
 0.03633697478966639    2    2   23    7
 3.007988456839999e-10    2    2   23    8
 0.06322210308441527    2    2   23   11
 -3.738182159651604e-10    2    2   23   12
 0.1737124583438891    2    2   23   13
 -5.72785669589182e-10    2    2   23   14
 -0.01440803099343805    2    2   23   15
 -3.127747314618512e-10    2    2   23   16
 2.297679321111579e-10    2    2   23   18
 -0.007672677642753899    2    2   23   19
 0.003132125473676545    2    2   23   21
 -8.919760954156919e-10    2    2   23   22
 0.5945527299111113    2    2   23   23
 0.006984699561403763    2    2   24    1
 -3.870739829597543e-11    2    2   24    2
 3.924522285516903e-11    2    2   24    3
 0.0176669565730128    2    2   24    4
 8.109571527758347e-10    2    2   24    5
 -0.194879807515146    2    2   24    6
 2.436551498757877e-10    2    2   24    7
 0.02514048420475953    2    2   24    8
 -9.822994848085465e-11    2    2   24   11
 0.1018502943146968    2    2   24   12
 -6.844226600397074e-10    2    2   24   13
 0.09618438846983948    2    2   24   14
 3.842753309567931e-10    2    2   24   15
 0.07691787052527736    2    2   24   16
 0.009165820185800543    2    2   24   18
 6.695916854836115e-10    2    2   24   19
 1.42873466963539e-10    2    2   24   21
 0.02551757528589307    2    2   24   22
 -1.665764231412181e-09    2    2   24   23
 0.5810788286515226    2    2   24   24
 -4.141143006985851e-10    2    2   25    1
 0.1819167926195732    2    2   25    2
 -0.1753863896129319    2    2   25    3
 -8.027410768984659e-10    2    2   25    4
 0.0007734267532428405    2    2   25    5
 -9.078832477471543e-11    2    2   25    6
 0.02774721128582032    2    2   25    7
 9.926712923880032e-11    2    2   25    8
 -0.1079532775750713    2    2   25   11
 -3.521001944867264e-10    2    2   25   12
 0.007362639128200085    2    2   25   13
 4.390629526618284e-10    2    2   25   14
 0.02088055945453758    2    2   25   15
 2.451931192803958e-11    2    2   25   16
 -4.897513054824554e-10    2    2   25   18
 -0.04143499194075424    2    2   25   19
 0.05513647990542457    2    2   25   21
 -2.731630789620798e-10    2    2   25   22
 -0.01826132816617317    2    2   25   23
 -6.375722519380567e-11    2    2   25   24
 0.4989187138717938    2    2   25   25
 0.1612322608463786    2    2   26    1
 -1.101036474067217e-09    2    2   26    2
 6.970749646113112e-10    2    2   26    3
 0.1555336451642511    2    2   26    4
 -5.507359173741178e-11    2    2   26    5
 0.0296569912441105    2    2   26    6
 -8.159064266224925e-11    2    2   26    7
 -0.009762212792082505    2    2   26    8
 4.313072034939358e-10    2    2   26   11
 0.06679536431344718    2    2   26   12
 4.575851329791103e-11    2    2   26   13
 -0.07599642913344279    2    2   26   14
 -4.260782872356206e-11    2    2   26   15
 0.001022571036314094    2    2   26   16
 0.08978534129397703    2    2   26   18
 1.673798070631061e-10    2    2   26   19
 -1.046677284774478e-10    2    2   26   21
 0.02769741330054122    2    2   26   22
 1.553412450755465e-10    2    2   26   23
 -0.02614553064228887    2    2   26   24
 -1.387102932515205e-09    2    2   26   25
 0.4739912766481932    2    2   26   26
 -1.446365923334574e-09    3    1    1    1
 -0.2120331242923661    3    1    2    1
 4.818679946333199e-10    3    1    2    2
 0.03105826542450074    3    1    3    1
 -1.443929168910337e-11    3    1    3    3
 -1.431833613428313e-10    3    1    4    1
 -0.03148879057875725    3    1    4    2
 0.006491998304719234    3    1    4    3
 -1.490246693713513e-11    3    1    4    4
 0.001970945148275496    3    1    5    1
 0.000685601643132491    3    1    5    4
 -0.001553474228940943    3    1    6    2
 0.0003213056910437561    3    1    6    3
 -0.003118225935793128    3    1    6    5
 -0.009058622177181999    3    1    7    1
 -0.00440818730195905    3    1    7    4
 -0.0006612622857974908    3    1    7    6
 -1.55811969365172e-11    3    1    7    7
 3.793836523825452e-11    3    1    8    1
 0.008344944619756618    3    1    8    2
 -0.004246631708967097    3    1    8    3
 -0.000716097089036597    3    1    8    5
 0.006859236850075597    3    1    8    7
 -1.575001339472557e-11    3    1    8    8
 -1.283694897884387e-11    3    1    9    9
 0.005698089255858753    3    1   10    9
 -1.300296529520642e-11    3    1   10   10
 0.01267373793444942    3    1   11    1
 0.002097185275796043    3    1   11    4
 0.0008386437422778879    3    1   11    6
 0.000728943908110961    3    1   11    8
 -4.523902467183785e-11    3    1   12    1
 -0.009945915882273218    3    1   12    2
 0.001712656273120193    3    1   12    3
 0.001485358416170328    3    1   12    5
 0.0005919000636675292    3    1   12    7
 0.0006135636938804614    3    1   12   11
 -0.001350694961024417    3    1   13    1